----- GAMESS execution script 'rungms' -----
This job is running on host d12chas540.crc.nd.edu
under operating system Linux at Thu Oct 3 23:27:08 EDT 2019
SGE has assigned the following compute nodes to this run:
Available scratch disk space (Kbyte units) at beginning of the job is
Filesystem      1K-blocks     Used  Available Use% Mounted on
/dev/sda2      1949705068 49646176 1900058892   3% /
GAMESS temporary binary files will be written to /tmp/471380.1.debug
GAMESS supplementary output files will be written to /afs/crc.nd.edu/user/w/wschnei1/scr
Copying input file opt-cart.inp to your run's scratch directory...
reading your own /afs/crc.nd.edu/user/w/wschnei1/.gmsrc

 Distributed Data Interface kickoff program.
 Initiating 1 compute processes on 1 nodes to run the following command:
 /afs/crc.nd.edu/x86_64_linux/g/gamess/nov-2017/gamess/gamess.00.x opt-cart 

          ******************************************************
          *         GAMESS VERSION = 11 NOV 2017 (R3)         *
          *             FROM IOWA STATE UNIVERSITY             *
          * M.W.SCHMIDT, K.K.BALDRIDGE, J.A.BOATZ, S.T.ELBERT, *
          *   M.S.GORDON, J.H.JENSEN, S.KOSEKI, N.MATSUNAGA,   *
          *          K.A.NGUYEN, S.J.SU, T.L.WINDUS,           *
          *       TOGETHER WITH M.DUPUIS, J.A.MONTGOMERY       *
          *         J.COMPUT.CHEM.  14, 1347-1363(1993)        *
          **************** 64 BIT INTEL VERSION ****************

  SINCE 1993, STUDENTS AND POSTDOCS WORKING AT IOWA STATE UNIVERSITY
  AND ALSO IN THEIR VARIOUS JOBS AFTER LEAVING ISU HAVE MADE IMPORTANT
  CONTRIBUTIONS TO THE CODE:
     IVANA ADAMOVIC, CHRISTINE AIKENS, YURI ALEXEEV, POOJA ARORA,
     ANDREY ASADCHEV, ROB BELL, PRADIPTA BANDYOPADHYAY, JONATHAN BENTZ,
     BRETT BODE, KURT BRORSEN, CALEB CARLIN, GALINA CHABAN, WEI CHEN,
     CHEOL HO CHOI, PAUL DAY, ALBERT DEFUSCO, NUWAN DESILVA, TIM DUDLEY,
     DMITRI FEDOROV, ALEX FINDLATER, GRAHAM FLETCHER, MARK FREITAG,
     KURT GLAESEMANN, ANASTASIA GUININA,
     DAN KEMP, GRANT MERRILL, NORIYUKI MINEZAWA, JONATHAN MULLIN,
     TAKESHI NAGATA, SEAN NEDD, HEATHER NETZLOFF, BOSILJKA NJEGIC, RYAN OLSON,
     MIKE PAK, BUU PHAM,
     SPENCER PRUITT, LUKE ROSKOP, JIM SHOEMAKER, LYUDMILA SLIPCHENKO,
     TONY SMITH, SAROM SOK LEANG, JIE SONG, TETSUYA TAKETSUGU, SIMON WEBB,
     PENG XU, SOOHAENG YOO, FEDERICO ZAHARIEV

  ADDITIONAL CODE HAS BEEN PROVIDED BY COLLABORATORS IN OTHER GROUPS:
     IOWA STATE UNIVERSITY:
          JOE IVANIC, AARON WEST, LAIMUTIS BYTAUTAS, KLAUS RUEDENBERG
     UNIVERSITY OF TOKYO: KIMIHIKO HIRAO, TAKAHITO NAKAJIMA,
          TAKAO TSUNEDA, MUNEAKI KAMIYA, SUSUMU YANAGISAWA,
          KIYOSHI YAGI, MAHITO CHIBA, SEIKEN TOKURA, NAOAKI KAWAKAMI
     UNIVERSITY OF AARHUS: FRANK JENSEN
     UNIVERSITY OF IOWA: VISVALDAS KAIRYS, HUI LI
     NATIONAL INST. OF STANDARDS AND TECHNOLOGY: WALT STEVENS, DAVID GARMER
     UNIVERSITY OF PISA: BENEDETTA MENNUCCI, JACOPO TOMASI
     UNIVERSITY OF MEMPHIS: HENRY KURTZ, PRAKASHAN KORAMBATH
     UNIVERSITY OF ALBERTA: TOBY ZENG, MARIUSZ KLOBUKOWSKI
     UNIVERSITY OF NEW ENGLAND: MARK SPACKMAN
     MIE UNIVERSITY: HIROAKI UMEDA
     NAT. INST. OF ADVANCED INDUSTRIAL SCIENCE AND TECHNOLOGY: KAZUO KITAURA
     MICHIGAN STATE UNIVERSITY:
          KAROL KOWALSKI, MARTA WLOCH, JEFFREY GOUR, JESSE LUTZ,
          WEI LI, PIOTR PIECUCH
     UNIVERSITY OF SILESIA: MONIKA MUSIAL, STANISLAW KUCHARSKI
     FACULTES UNIVERSITAIRES NOTRE-DAME DE LA PAIX:
          OLIVIER QUINET, BENOIT CHAMPAGNE
     UNIVERSITY OF CALIFORNIA - SANTA BARBARA: BERNARD KIRTMAN
     INSTITUTE FOR MOLECULAR SCIENCE:
          KAZUYA ISHIMURA, MICHIO KATOUDA, AND SHIGERU NAGASE
     UNIVERSITY OF NOTRE DAME: ANNA POMOGAEVA, DAN CHIPMAN
     KYUSHU UNIVERSITY:
          HARUYUKI NAKANO,
          FENG LONG GU, JACEK KORCHOWIEC, MARCIN MAKOWSKI, AND YURIKO AOKI,
          HIROTOSHI MORI AND EISAKU MIYOSHI
     PENNSYLVANIA STATE UNIVERSITY:
          TZVETELIN IORDANOV, CHET SWALINA, JONATHAN SKONE,
          SHARON HAMMES-SCHIFFER
     WASEDA UNIVERSITY:
          MASATO KOBAYASHI, TOMOKO AKAMA, TSUGUKI TOUMA,
          TAKESHI YOSHIKAWA, YASUHIRO IKABATA, JUNJI SEINO,
          YUYA NAKAJIMA, HIROMI NAKAI
     NANJING UNIVERSITY: SHUHUA LI
     UNIVERSITY OF NEBRASKA:
          PEIFENG SU, DEJUN SI, NANDUN THELLAMUREGE, YALI WANG, HUI LI
     UNIVERSITY OF ZURICH: ROBERTO PEVERATI, KIM BALDRIDGE
     N. COPERNICUS UNIVERSITY AND JACKSON STATE UNIVERSITY:
          MARIA BARYSZ
     UNIVERSITY OF COPENHAGEN: Jimmy Kromann, CASPER STEINMANN
     TOKYO INSTITUTE OF TECHNOLOGY: HIROYA NAKATA
     NAGOYA UNIVERSITY: YOSHIO NISHIMOTO, STEPHAN IRLE
     MOSCOW STATE UNIVERSITY: VLADIMIR MIRONOV

 EXECUTION OF GAMESS BEGUN Thu Oct  3 23:27:09 2019

            ECHO OF THE FIRST FEW INPUT CARDS -
 INPUT CARD> $CONTRL SCFTYP=RHF DFTTYP=PBE RUNTYP=OPTIMIZE COORD=ZMTMPC                     
 INPUT CARD>  ISPHER=1 $END                                                                 
 INPUT CARD> $BASIS GBASIS=PCseg-0 $END                                                     
 INPUT CARD> $DATA                                                                          
 INPUT CARD>C5H10                                                                           
 INPUT CARD>C1                                                                              
 INPUT CARD>C 0.0000000 0 0.0000000 0 0.0000000 0 0 0 0                                     
 INPUT CARD>C 1.1026411 1 0.0000000 0 0.0000000 0 1 0 0                                     
 INPUT CARD>C 1.0662321 1 104.15463 1 0.0000000 0 2 1 0                                     
 INPUT CARD>C 1.1438482 1 103.19847 1 8.0000000 1 3 2 1                                     
 INPUT CARD>C 0.9850927 1 117.01267 1 -12.0000000 1 4 3 2                                   
 INPUT CARD>H 1.0900000 1 109.47122 1 110.00000 1 5 4 3                                     
 INPUT CARD>H 1.0900000 1 109.47122 1 -110.00000 1 5 4 3                                    
 INPUT CARD>H 1.0900000 1 109.47122 1 117.00000 1 4 3 2                                     
 INPUT CARD>H 1.0900000 1 109.47122 1 -123.00000 1 4 3 2                                    
 INPUT CARD>H 1.0900000 1 109.47122 1 120.00000 1 3 2 1                                     
 INPUT CARD>H 1.0900000 1 109.47122 1 -117.00000 1 3 2 1                                    
 INPUT CARD>H 1.0900000 1 109.47122 1 120.00000 1 2 1 5                                     
 INPUT CARD>H 1.0900000 1 109.47122 1 -120.00000 1 2 1 5                                    
 INPUT CARD>H 1.0900000 1 109.47122 1 120.00000 1 1 2 3                                     
 INPUT CARD>H 1.0900000 1 109.47122 1 -120.00000 1 1 2 3                                    
 INPUT CARD> $END                                                                           
 INPUT CARD>                                                                                
    1000000 WORDS OF MEMORY AVAILABLE

     BASIS OPTIONS
     -------------
     GBASIS=PCSEG-0      IGAUSS=       0      POLAR=NONE    
     NDFUNC=       0     NFFUNC=       0     DIFFSP=       F
     NPFUNC=       0      DIFFS=       F     BASNAM=        


     RUN TITLE
     ---------
 C5H10                                                                           

 THE POINT GROUP OF THE MOLECULE IS C1      
 THE ORDER OF THE PRINCIPAL AXIS IS     0

 YOUR FULLY SUBSTITUTED Z-MATRIX IS
 C   
 C      1   1.1026411
 C      2   1.0662321  1  104.1546
 C      3   1.1438482  2  103.1985  1    8.0000  0
 C      4   0.9850927  3  117.0127  2  -12.0000  0
 H      5   1.0900000  4  109.4712  3  110.0000  0
 H      5   1.0900000  4  109.4712  3 -110.0000  0
 H      4   1.0900000  3  109.4712  2  117.0000  0
 H      4   1.0900000  3  109.4712  2 -123.0000  0
 H      3   1.0900000  2  109.4712  1  120.0000  0
 H      3   1.0900000  2  109.4712  1 -117.0000  0
 H      2   1.0900000  1  109.4712  5  120.0000  0
 H      2   1.0900000  1  109.4712  5 -120.0000  0
 H      1   1.0900000  2  109.4712  3  120.0000  0
 H      1   1.0900000  2  109.4712  3 -120.0000  0

 THE MOMENTS OF INERTIA ARE (AMU-ANGSTROM**2)
 IXX=    41.540   IYY=    48.906   IZZ=    73.794

 ATOM      ATOMIC                      COORDINATES (BOHR)
           CHARGE         X                   Y                   Z
 C           6.0    -0.2396438413       -1.6073330204       -0.0156862422
 C           6.0     1.6487613877       -0.7286712570        0.0446569699
 C           6.0     1.2767295490        1.2477692408       -0.0779925762
 C           6.0    -0.8755812729        1.3561817435        0.0897723192
 C           6.0    -1.8166629071       -0.2433234007       -0.0562985378
 H           1.0    -2.6063915564       -0.7453412222        1.7786642064
 H           1.0    -2.8634664143       -0.2645235046       -1.8301459039
 H           1.0    -1.3798363782        2.4017311592        1.7913406290
 H           1.0    -1.6453158349        2.3184642394       -1.5607738351
 H           1.0     2.0089274772        2.1897467983        1.6010982433
 H           1.0     2.1115476884        1.9976783498       -1.8052726657
 H           1.0     2.6303442957       -1.3274142081        1.7536869223
 H           1.0     2.7304855649       -1.3117387131       -1.6084270120
 H           1.0    -0.3612692780       -2.8623053146       -1.6444997058
 H           1.0    -0.5488565716       -2.6894830824        1.7094572984

          INTERNUCLEAR DISTANCES (ANGS.)
          ------------------------------

                1 C          2 C          3 C          4 C          5 C     

   1 C       0.0000000    1.1026411 *  1.7110420 *  1.6048959 *  1.1035802 *
   2 C       1.1026411 *  0.0000000    1.0662321 *  1.7326780 *  1.8524923 *
   3 C       1.7110420 *  1.0662321 *  0.0000000    1.1438482 *  1.8172370 *
   4 C       1.6048959 *  1.7326780 *  1.1438482 *  0.0000000    0.9850927 *
   5 C       1.1035802 *  1.8524923 *  1.8172370 *  0.9850927 *  0.0000000  
   6 H       1.6365373 *  2.4315326 *  2.5100129 *  1.6953883 *  1.0900000 *
   7 H       1.8315838 *  2.5973127 *  2.5100129 *  1.6953883 *  1.0900000 *
   8 H       2.4040017 *  2.4833430 *  1.8241944 *  1.0900000 *  1.7229496 *
   9 H       2.3532087 *  2.5219828 *  1.8241944 *  1.0900000 *  1.5747413 *
  10 H       2.4870137 *  1.7606096 *  1.0900000 *  1.7788014 *  2.5544486 *
  11 H       2.4666034 *  1.7606096 *  1.0900000 *  1.9025120 *  2.5659279 *
  12 H       1.7902988 *  1.0900000 *  1.8192382 *  2.4967866 *  2.6046690 *
  13 H       1.7902988 *  1.0900000 *  1.7556182 *  2.5381428 *  2.6046690 *
  14 H       1.0900000 *  1.7902988 *  2.4837360 *  2.4289091 *  1.7944977 *
  15 H       1.0900000 *  1.7902988 *  2.4837360 *  2.3125429 *  1.7317057 *

                6 H          7 H          8 H          9 H         10 H     

   1 C       1.6365373 *  1.8315838 *  2.4040017 *  2.3532087 *  2.4870137 *
   2 C       2.4315326 *  2.5973127 *  2.4833430 *  2.5219828 *  1.7606096 *
   3 C       2.5100129 *  2.5100129 *  1.8241944 *  1.8241944 *  1.0900000 *
   4 C       1.6953883 *  1.6953883 *  1.0900000 *  1.0900000 *  1.7788014 *
   5 C       1.0900000 *  1.0900000 *  1.7229496 *  1.5747413 *  2.5544486 *
   6 H       0.0000000    1.9313725 *  1.7873868 *  2.4515484 *  2.8958831 *
   7 H       1.9313725 *  0.0000000    2.5059343 *  1.5179436 *  3.4105095  
   8 H       1.7873868 *  2.5059343 *  0.0000000    1.7799626 *  1.7995800 *
   9 H       2.4515484 *  1.5179436 *  1.7799626 *  0.0000000    2.5580396 *
  10 H       2.8958831 *  3.4105095    1.7995800 *  2.5580396 *  0.0000000  
  11 H       3.4549930    2.8920852 *  2.6611170 *  1.9994713 *  1.8062537 *
  12 H       2.7882587 *  3.5163639    2.8979155 *  3.4522215    1.8917523 *
  13 H       3.3583145    3.0139010    3.4393682    3.0087942    2.5423704 *
  14 H       2.4388219 *  1.9111964 *  3.3698478    2.8248431 *  3.4161648  
  15 H       1.4984154 *  2.5797941 *  2.7301492 *  3.2178229    2.9158043 *

               11 H         12 H         13 H         14 H         15 H     

   1 C       2.4666034 *  1.7902988 *  1.7902988 *  1.0900000 *  1.0900000 *
   2 C       1.7606096 *  1.0900000 *  1.0900000 *  1.7902988 *  1.7902988 *
   3 C       1.0900000 *  1.8192382 *  1.7556182 *  2.4837360 *  2.4837360 *
   4 C       1.9025120 *  2.4967866 *  2.5381428 *  2.4289091 *  2.3125429 *
   5 C       2.5659279 *  2.6046690 *  2.6046690 *  1.7944977 *  1.7317057 *
   6 H       3.4549930    2.7882587 *  3.3583145    2.4388219 *  1.4984154 *
   7 H       2.8920852 *  3.5163639    3.0139010    1.9111964 *  2.5797941 *
   8 H       2.6611170 *  2.8979155 *  3.4393682    3.3698478    2.7301492 *
   9 H       1.9994713 *  3.4522215    3.0087942    2.8248431 *  3.2178229  
  10 H       1.8062537 *  1.8917523 *  2.5423704 *  3.4161648    2.9158043 *
  11 H       0.0000000    2.5919739 *  1.7846752 *  2.8868117 *  3.4048993  
  12 H       2.5919739 *  0.0000000    1.7799626 *  2.5297393 *  1.8304107 *
  13 H       1.7846752 *  1.7799626 *  0.0000000    1.8304107 *  2.5740337 *
  14 H       2.8868117 *  2.5297393 *  1.8304107 *  0.0000000    1.7799626 *
  15 H       3.4048993    1.8304107 *  2.5740337 *  1.7799626 *  0.0000000  

  * ... LESS THAN  3.000


     ATOMIC BASIS SET
     ----------------
 THE CONTRACTED PRIMITIVE FUNCTIONS HAVE BEEN UNNORMALIZED
 THE CONTRACTED BASIS FUNCTIONS ARE NOW NORMALIZED TO UNITY

  SHELL TYPE  PRIMITIVE        EXPONENT          CONTRACTION COEFFICIENT(S)

 C         

      1   S       1           471.5250000    0.018365741272
      1   S       2            71.1900000    0.127245821015
      1   S       3            15.8860000    0.440412776421
      1   S       4             4.1646900    0.553280001111

      2   S       5             0.4425810    1.000000000000

      3   S       6             0.1428360    1.000000000000

      4   P       7             4.4121100    0.213746653399
      4   P       8             0.8798600    0.879956252208

      5   P       9             0.1929920    1.000000000000

 C         

      6   S      10           471.5250000    0.018365741272
      6   S      11            71.1900000    0.127245821015
      6   S      12            15.8860000    0.440412776421
      6   S      13             4.1646900    0.553280001111

      7   S      14             0.4425810    1.000000000000

      8   S      15             0.1428360    1.000000000000

      9   P      16             4.4121100    0.213746653399
      9   P      17             0.8798600    0.879956252208

     10   P      18             0.1929920    1.000000000000

 C         

     11   S      19           471.5250000    0.018365741272
     11   S      20            71.1900000    0.127245821015
     11   S      21            15.8860000    0.440412776421
     11   S      22             4.1646900    0.553280001111

     12   S      23             0.4425810    1.000000000000

     13   S      24             0.1428360    1.000000000000

     14   P      25             4.4121100    0.213746653399
     14   P      26             0.8798600    0.879956252208

     15   P      27             0.1929920    1.000000000000

 C         

     16   S      28           471.5250000    0.018365741272
     16   S      29            71.1900000    0.127245821015
     16   S      30            15.8860000    0.440412776421
     16   S      31             4.1646900    0.553280001111

     17   S      32             0.4425810    1.000000000000

     18   S      33             0.1428360    1.000000000000

     19   P      34             4.4121100    0.213746653399
     19   P      35             0.8798600    0.879956252208

     20   P      36             0.1929920    1.000000000000

 C         

     21   S      37           471.5250000    0.018365741272
     21   S      38            71.1900000    0.127245821015
     21   S      39            15.8860000    0.440412776421
     21   S      40             4.1646900    0.553280001111

     22   S      41             0.4425810    1.000000000000

     23   S      42             0.1428360    1.000000000000

     24   P      43             4.4121100    0.213746653399
     24   P      44             0.8798600    0.879956252208

     25   P      45             0.1929920    1.000000000000

 H         

     26   S      46             4.3447300    0.167654352461
     26   S      47             0.6604870    0.896889788192

     27   S      48             0.1366870    1.000000000000

 H         

     28   S      49             4.3447300    0.167654352461
     28   S      50             0.6604870    0.896889788192

     29   S      51             0.1366870    1.000000000000

 H         

     30   S      52             4.3447300    0.167654352461
     30   S      53             0.6604870    0.896889788192

     31   S      54             0.1366870    1.000000000000

 H         

     32   S      55             4.3447300    0.167654352461
     32   S      56             0.6604870    0.896889788192

     33   S      57             0.1366870    1.000000000000

 H         

     34   S      58             4.3447300    0.167654352461
     34   S      59             0.6604870    0.896889788192

     35   S      60             0.1366870    1.000000000000

 H         

     36   S      61             4.3447300    0.167654352461
     36   S      62             0.6604870    0.896889788192

     37   S      63             0.1366870    1.000000000000

 H         

     38   S      64             4.3447300    0.167654352461
     38   S      65             0.6604870    0.896889788192

     39   S      66             0.1366870    1.000000000000

 H         

     40   S      67             4.3447300    0.167654352461
     40   S      68             0.6604870    0.896889788192

     41   S      69             0.1366870    1.000000000000

 H         

     42   S      70             4.3447300    0.167654352461
     42   S      71             0.6604870    0.896889788192

     43   S      72             0.1366870    1.000000000000

 H         

     44   S      73             4.3447300    0.167654352461
     44   S      74             0.6604870    0.896889788192

     45   S      75             0.1366870    1.000000000000

 TOTAL NUMBER OF BASIS SET SHELLS             =   45
 NUMBER OF CARTESIAN GAUSSIAN BASIS FUNCTIONS =   65
 NOTE: THIS RUN WILL RESTRICT THE MO VARIATION SPACE TO SPHERICAL HARMONICS.
 THE NUMBER OF ORBITALS KEPT IN THE VARIATIONAL SPACE WILL BE PRINTED LATER.
 NUMBER OF ELECTRONS                          =   40
 CHARGE OF MOLECULE                           =    0
 SPIN MULTIPLICITY                            =    1
 NUMBER OF OCCUPIED ORBITALS (ALPHA)          =   20
 NUMBER OF OCCUPIED ORBITALS (BETA )          =   20
 TOTAL NUMBER OF ATOMS                        =   15
 THE NUCLEAR REPULSION ENERGY IS      243.7914453078

     LEBEDEV GRID-BASED DFT OPTIONS
     ------------------------------
     DFTTYP=PBE     
     NRAD  =      96     NLEB  =     302
     NRAD0 =      24     NLEB0 =     110
     SWOFF =    5.00E-03 (PURE SCF -> DFT)
     SWITCH=    3.00E-04 (COARSE -> TIGHT GRID)
     THRESH=    0.00E+00 GTHRE=    1.00E+00

 GRIMME'S EMPIRICAL DISPERSION CORRECTION= F

     $CONTRL OPTIONS
     ---------------
 SCFTYP=RHF          RUNTYP=OPTIMIZE     EXETYP=RUN     
 MPLEVL=       0     CITYP =NONE         CCTYP =NONE         VBTYP =NONE    
 DFTTYP=PBE          TDDFT =NONE    
 MULT  =       1     ICHARG=       0     NZVAR =       0     COORD =ZMTMPC  
 PP    =NONE         RELWFN=NONE         LOCAL =NONE         NUMGRD=       F
 ISPHER=       1     NOSYM =       0     MAXIT =      30     UNITS =ANGS    
 PLTORB=       F     MOLPLT=       F     AIMPAC=       F     FRIEND=        
 NPRINT=       7     IREST =       0     GEOM  =INPUT   
 NORMF =       0     NORMP =       0     ITOL  =      20     ICUT  =       9
 INTTYP=BEST         GRDTYP=BEST         QMTTOL= 1.0E-06

     $SYSTEM OPTIONS
     ---------------
  REPLICATED MEMORY=     1000000 WORDS (ON EVERY NODE).
 DISTRIBUTED MEMDDI=           0 MILLION WORDS IN AGGREGATE,
 MEMDDI DISTRIBUTED OVER   1 PROCESSORS IS           0 WORDS/PROCESSOR.
 TOTAL MEMORY REQUESTED ON EACH PROCESSOR=     1000000 WORDS.
 TIMLIM=      525600.00 MINUTES, OR     365.0 DAYS.
 PARALL= F  BALTYP=  DLB     KDIAG=    0  COREFL= F
 MXSEQ2=     300 MXSEQ3=     150  mem10=         0

          ----------------
          PROPERTIES INPUT
          ----------------

     MOMENTS            FIELD           POTENTIAL          DENSITY
 IEMOM =       1   IEFLD =       0   IEPOT =       0   IEDEN =       0
 WHERE =COMASS     WHERE =NUCLEI     WHERE =NUCLEI     WHERE =NUCLEI  
 OUTPUT=BOTH       OUTPUT=BOTH       OUTPUT=BOTH       OUTPUT=BOTH    
 IEMINT=       0   IEFINT=       0                     IEDINT=       0
                                                       MORB  =       0
          EXTRAPOLATION IN EFFECT
          DIIS IN EFFECT
 ORBITAL PRINTING OPTION: NPREO=     1    65     2     1

     -------------------------------
     INTEGRAL TRANSFORMATION OPTIONS
     -------------------------------
     NWORD  =            0
     CUTOFF = 1.0E-09     MPTRAN =       0
     DIRTRF =       F     AOINTS =DUP     

          ----------------------
          INTEGRAL INPUT OPTIONS
          ----------------------
 NOPK  =       1 NORDER=       0 SCHWRZ=       T

   --- ENCODED Z MATRIX ---
 COORD  TYPE   I   J   K   L   M   N
    1      1    2   1
    2      1    3   2
    3      2    3   2   1
    4      1    4   3
    5      2    4   3   2
    6      3    4   3   2   1
    7      1    5   4
    8      2    5   4   3
    9      3    5   4   3   2
   10      1    6   5
   11      2    6   5   4
   12      3    6   5   4   3
   13      1    7   5
   14      2    7   5   4
   15      3    7   5   4   3
   16      1    8   4
   17      2    8   4   3
   18      3    8   4   3   2
   19      1    9   4
   20      2    9   4   3
   21      3    9   4   3   2
   22      1   10   3
   23      2   10   3   2
   24      3   10   3   2   1
   25      1   11   3
   26      2   11   3   2
   27      3   11   3   2   1
   28      1   12   2
   29      2   12   2   1
   30      3   12   2   1   5
   31      1   13   2
   32      2   13   2   1
   33      3   13   2   1   5
   34      1   14   1
   35      2   14   1   2
   36      3   14   1   2   3
   37      1   15   1
   38      2   15   1   2
   39      3   15   1   2   3

 THE DETERMINANT OF THE G MATRIX IS 10**(   -21)

     ------------------------------------------
     THE POINT GROUP IS C1 , NAXIS= 0, ORDER= 1
     ------------------------------------------

 -- VARIATIONAL SPACE WILL BE RESTRICTED TO PURE SPHERICAL HARMONICS ONLY --
 AFTER EXCLUDING CONTAMINANT COMBINATIONS FROM THE CARTESIAN GAUSSIAN BASIS
 SET, THE NUMBER OF SPHERICAL HARMONICS KEPT IN THE VARIATION SPACE IS   65

     DIMENSIONS OF THE SYMMETRY SUBSPACES ARE
 A   =   65

 ..... DONE SETTING UP THE RUN .....
 STEP CPU TIME =     0.02 TOTAL CPU TIME =          0.0 (      0.0 MIN)
 TOTAL WALL CLOCK TIME=          0.0 SECONDS, CPU UTILIZATION IS    66.67%


          -----------------------------
          STATIONARY POINT LOCATION RUN
          -----------------------------

 OBTAINING INITIAL HESSIAN, HESS=GUESS   
 CARTESIAN COORDINATE OPTIMIZATION USING BADGER'S RULE FORCE CONSTANT GUESS

          PARAMETERS CONTROLLING GEOMETRY SEARCH ARE
          METHOD =QA                  UPHESS =BFGS    
          NNEG   =         0          NFRZ   =         0
          NSTEP  =        50          IFOLOW =         1
          HESS   =GUESS               RESTAR =         F
          IHREP  =         0          HSSEND =         F
          NPRT   =         0          NPUN   =         0
          OPTTOL = 1.000E-04          RMIN   = 1.500E-03
          RMAX   = 1.000E-01          RLIM   = 7.000E-02
          DXMAX  = 3.000E-01          PURIFY =         F
          MOVIE  =         F          TRUPD  =         T
          TRMAX  = 5.000E-01          TRMIN  = 5.000E-02
          ITBMAT =         5          STPT   =         F
          STSTEP = 1.000E-02          PROJCT=          T

 BEGINNING GEOMETRY SEARCH POINT NSERCH=   0 ...

 COORDINATES OF ALL ATOMS ARE (ANGS)
   ATOM   CHARGE       X              Y              Z
 ------------------------------------------------------------
 C           6.0  -0.1268140687  -0.8505640663  -0.0083008025
 C           6.0   0.8724870158  -0.3855962514   0.0236314525
 C           6.0   0.6756162308   0.6602910945  -0.0412718969
 C           6.0  -0.4633376895   0.7176605245   0.0475054689
 C           6.0  -0.9613366800  -0.1287612079  -0.0297919054
 H           1.0  -1.3792431143  -0.3944176177   0.9412286321
 H           1.0  -1.5152812804  -0.1399798205  -0.9684715751
 H           1.0  -0.7301780190   1.2709414883   0.9479367065
 H           1.0  -0.8706637076   1.2268785287  -0.8259260047
 H           1.0   1.0630787163   1.1587641873   0.8472647642
 H           1.0   1.1173829974   1.0571259340  -0.9553092234
 H           1.0   1.3919183590  -0.7024373992   0.9280112216
 H           1.0   1.4449108403  -0.6941422839  -0.8511429818
 H           1.0  -0.1911754828  -1.5146668528  -0.8702318307
 H           1.0  -0.2904424108  -1.4232132594   0.9046059109

 THE CURRENT FULLY SUBSTITUTED Z-MATRIX IS
 C   
 C      1   1.1026411
 C      2   1.0662321  1   104.1546300
 C      3   1.1438482  2   103.1984700  1     8.0000000  0
 C      4   0.9850927  3   117.0126700  2   -12.0000000  0
 H      5   1.0900000  4   109.4712200  3   110.0000000  0
 H      5   1.0900000  4   109.4712200  3  -110.0000000  0
 H      4   1.0900000  3   109.4712200  2   117.0000000  0
 H      4   1.0900000  3   109.4712200  2  -123.0000000  0
 H      3   1.0900000  2   109.4712200  1   120.0000000  0
 H      3   1.0900000  2   109.4712200  1  -117.0000000  0
 H      2   1.0900000  1   109.4712200  5   120.0000000  0
 H      2   1.0900000  1   109.4712200  5  -120.0000000  0
 H      1   1.0900000  2   109.4712200  3   120.0000000  0
 H      1   1.0900000  2   109.4712200  3  -120.0000000  0

          ********************
          1 ELECTRON INTEGRALS
          ********************
 ...... END OF ONE-ELECTRON INTEGRALS ......
 STEP CPU TIME =     0.01 TOTAL CPU TIME =          0.0 (      0.0 MIN)
 TOTAL WALL CLOCK TIME=          0.0 SECONDS, CPU UTILIZATION IS    75.00%

          -------------
          GUESS OPTIONS
          -------------
          GUESS =HUCKEL            NORB  =       0          NORDER=       0
          MIX   =       F          PRTMO =       F          PUNMO =       F
          TOLZ  = 1.0E-08          TOLE  = 1.0E-05
          SYMDEN=       F          PURIFY=       F

 INITIAL GUESS ORBITALS GENERATED BY HUCKEL   ROUTINE.
 HUCKEL GUESS REQUIRES     46350 WORDS.

 SYMMETRIES FOR INITIAL GUESS ORBITALS FOLLOW.   BOTH SET(S).
    20 ORBITALS ARE OCCUPIED (    5 CORE ORBITALS).
     6=A        7=A        8=A        9=A       10=A       11=A       12=A   
    13=A       14=A       15=A       16=A       17=A       18=A       19=A   
    20=A       21=A       22=A       23=A       24=A       25=A       26=A   
    27=A       28=A       29=A       30=A   
 ...... END OF INITIAL ORBITAL SELECTION ......
 STEP CPU TIME =     0.01 TOTAL CPU TIME =          0.0 (      0.0 MIN)
 TOTAL WALL CLOCK TIME=          0.1 SECONDS, CPU UTILIZATION IS    80.00%

                    ----------------------
                    AO INTEGRAL TECHNOLOGY
                    ----------------------
     S,P,L SHELL ROTATED AXIS INTEGRALS, REPROGRAMMED BY
        KAZUYA ISHIMURA (IMS) AND JOSE SIERRA (SYNSTAR).
     S,P,D,L SHELL ROTATED AXIS INTEGRALS PROGRAMMED BY
        KAZUYA ISHIMURA (INSTITUTE FOR MOLECULAR SCIENCE).
     S,P,D,F,G SHELL TO TOTAL QUARTET ANGULAR MOMENTUM SUM 5,
        ERIC PROGRAM BY GRAHAM FLETCHER (ELORET AND NASA ADVANCED
        SUPERCOMPUTING DIVISION, AMES RESEARCH CENTER).
     S,P,D,F,G,L SHELL GENERAL RYS QUADRATURE PROGRAMMED BY
        MICHEL DUPUIS (PACIFIC NORTHWEST NATIONAL LABORATORY).

          --------------------
          2 ELECTRON INTEGRALS
          --------------------

 THE -PK- OPTION IS OFF, THE INTEGRALS ARE NOT IN SUPERMATRIX FORM.
 STORING   15000 INTEGRALS/RECORD ON DISK, USING 12 BYTES/INTEGRAL.
 TWO ELECTRON INTEGRAL EVALUATION REQUIRES   90391 WORDS OF MEMORY.
 SCHWARZ INEQUALITY OVERHEAD:      2145 INTEGRALS, T=        0.00
 II,JST,KST,LST =  1  1  1  1 NREC =         1 INTLOC =    1
 II,JST,KST,LST =  2  1  1  1 NREC =         1 INTLOC =    2
 II,JST,KST,LST =  3  1  1  1 NREC =         1 INTLOC =    7
 II,JST,KST,LST =  4  1  1  1 NREC =         1 INTLOC =   22
 II,JST,KST,LST =  5  1  1  1 NREC =         1 INTLOC =   67
 II,JST,KST,LST =  6  1  1  1 NREC =         1 INTLOC =  214
 II,JST,KST,LST =  7  1  1  1 NREC =         1 INTLOC =  719
 II,JST,KST,LST =  8  1  1  1 NREC =         1 INTLOC = 1390
 II,JST,KST,LST =  9  1  1  1 NREC =         1 INTLOC = 2260
 II,JST,KST,LST = 10  1  1  1 NREC =         1 INTLOC = 6274
 II,JST,KST,LST = 11  1  1  1 NREC =         1 INTLOC =13063
 II,JST,KST,LST = 12  1  1  1 NREC =         2 INTLOC = 1303
 II,JST,KST,LST = 13  1  1  1 NREC =         2 INTLOC = 5293
 II,JST,KST,LST = 14  1  1  1 NREC =         2 INTLOC = 9913
 II,JST,KST,LST = 15  1  1  1 NREC =         3 INTLOC =13029
 II,JST,KST,LST = 16  1  1  1 NREC =         5 INTLOC = 8775
 II,JST,KST,LST = 17  1  1  1 NREC =         6 INTLOC = 3910
 II,JST,KST,LST = 18  1  1  1 NREC =         7 INTLOC = 1032
 II,JST,KST,LST = 19  1  1  1 NREC =         7 INTLOC =14457
 II,JST,KST,LST = 20  1  1  1 NREC =        11 INTLOC = 3289
 II,JST,KST,LST = 21  1  1  1 NREC =        15 INTLOC = 6786
 II,JST,KST,LST = 22  1  1  1 NREC =        17 INTLOC =  564
 II,JST,KST,LST = 23  1  1  1 NREC =        18 INTLOC =12830
 II,JST,KST,LST = 24  1  1  1 NREC =        20 INTLOC =12314
 II,JST,KST,LST = 25  1  1  1 NREC =        27 INTLOC =10016
 II,JST,KST,LST = 26  1  1  1 NREC =        36 INTLOC = 1667
 II,JST,KST,LST = 27  1  1  1 NREC =        39 INTLOC = 4875
 II,JST,KST,LST = 28  1  1  1 NREC =        42 INTLOC =11571
 II,JST,KST,LST = 29  1  1  1 NREC =        46 INTLOC = 6212
 II,JST,KST,LST = 30  1  1  1 NREC =        50 INTLOC = 4812
 II,JST,KST,LST = 31  1  1  1 NREC =        54 INTLOC = 6804
 II,JST,KST,LST = 32  1  1  1 NREC =        58 INTLOC =12898
 II,JST,KST,LST = 33  1  1  1 NREC =        63 INTLOC = 7637
 II,JST,KST,LST = 34  1  1  1 NREC =        68 INTLOC = 6831
 II,JST,KST,LST = 35  1  1  1 NREC =        73 INTLOC = 9606
 II,JST,KST,LST = 36  1  1  1 NREC =        79 INTLOC = 2541
 II,JST,KST,LST = 37  1  1  1 NREC =        84 INTLOC =14274
 II,JST,KST,LST = 38  1  1  1 NREC =        91 INTLOC = 1607
 II,JST,KST,LST = 39  1  1  1 NREC =        97 INTLOC = 7537
 II,JST,KST,LST = 40  1  1  1 NREC =       104 INTLOC = 4932
 II,JST,KST,LST = 41  1  1  1 NREC =       111 INTLOC = 6241
 II,JST,KST,LST = 42  1  1  1 NREC =       118 INTLOC =14430
 II,JST,KST,LST = 43  1  1  1 NREC =       126 INTLOC =12050
 II,JST,KST,LST = 44  1  1  1 NREC =       135 INTLOC = 1769
 II,JST,KST,LST = 45  1  1  1 NREC =       143 INTLOC =11411
 SCHWARZ INEQUALITY TEST SKIPPED        7281 INTEGRAL BLOCKS.
 TOTAL NUMBER OF NONZERO TWO-ELECTRON INTEGRALS =             2278408
        152 INTEGRAL RECORDS WERE STORED ON DISK FILE  8.
  ...... END OF TWO-ELECTRON INTEGRALS .....
 STEP CPU TIME =     0.40 TOTAL CPU TIME =          0.4 (      0.0 MIN)
 TOTAL WALL CLOCK TIME=          0.5 SECONDS, CPU UTILIZATION IS    97.78%

          --------------------------
               R-PBE SCF CALCULATION
          --------------------------

     NUCLEAR ENERGY =       243.7914453078
     MAXIT =   30     NPUNCH=    2
     EXTRAP=T  DAMP=F  SHIFT=F  RSTRCT=F  DIIS=T  DEM=F  SOSCF=F
         DENSITY MATRIX CONVERGENCE THRESHOLD=  1.00E-05
     COARSE -> FINE DFT GRID SWITCH THRESHOLD=  3.00E-04 (SWITCH IN $DFT)
                   HF -> DFT SWITCH THRESHOLD=  5.00E-03 (SWOFF IN $DFT)
     MEMORY REQUIRED FOR RHF ITERS=    561252 WORDS.

 DFT CODE IS SWITCHING FROM THE FINE GRID NRAD= 96,  NLEB=  302
                      TO THE COARSE GRID NRAD0= 24, NLEB0=  110

     EXCHANGE FUNCTIONAL   =PBE       
     CORRELATION FUNCTIONAL=PBE       
     DFT THRESHOLD         =.920E-08
     GRID CHANGE THRESHOLD =.300E-03
 FOR AN EULER-MACLAURIN QUADRATURE USING  96 RADIAL POINTS:
 SMALLEST GAUSSIAN PRIMITIVE EXPONENT=        0.1366870000 OF TYPE -S-
 ON ATOM NUMBER   6 HAS RADIAL NORMALIZATION=  1.000000
  LARGEST GAUSSIAN PRIMITIVE EXPONENT=      471.5250000000 OF TYPE -S-
 ON ATOM NUMBER   1 HAS RADIAL NORMALIZATION=  1.000000
 DFT IS SWITCHED OFF, PERFORMING PURE SCF UNTIL SWOFF THRESHOLD IS REACHED.

 ITER EX DEM     TOTAL ENERGY        E CHANGE  DENSITY CHANGE    DIIS ERROR
   1  0  0     -192.0462464742  -192.0462464742   1.001424537   0.537004422
          * * *   INITIATING DIIS PROCEDURE   * * *
   2  1  0     -192.6642954407    -0.6180489665   0.410737649   0.280368002
   3  2  0     -192.7761430174    -0.1118475767   0.178483887   0.182416268
   4  3  0     -192.8762506738    -0.1001076563   0.030136491   0.008694748
   5  4  0     -192.8766049838    -0.0003543101   0.005824499   0.000865828
   6  5  0     -192.8766148207    -0.0000098369   0.002217456   0.000239273
 CONVERGED TO SWOFF, SO DFT CALCULATION IS NOW SWITCHED ON.
          * * *   INITIATING DIIS PROCEDURE   * * *
   7  6  0     -194.0822873397    -1.2056725190   0.429016392   0.114557004
   8  7  0     -194.0960015112    -0.0137141714   0.129057836   0.045583150
   9  8  0     -194.0931405124     0.0028609988   0.080951423   0.055451646
  10  9  0     -194.1012745900    -0.0081340776   0.004052565   0.000600286
  11 10  0     -194.1012772181    -0.0000026281   0.000789724   0.000364641
  12 11  0     -194.1012779046    -0.0000006865   0.000213227   0.000066399
 DFT CODE IS SWITCHING BACK TO THE FINE GRID
          * * *   INITIATING DIIS PROCEDURE   * * *
  13 12  0     -194.1026359400    -0.0013580354   0.022081611   0.001726360
  14 13  0     -194.1026513146    -0.0000153745   0.002926623   0.000810036
  15 14  0     -194.1026505581     0.0000007564   0.001396056   0.001049206
  16 15  0     -194.1026533012    -0.0000027431   0.000330308   0.000078728
  17 16  0     -194.1026533296    -0.0000000284   0.000065186   0.000018536
  18 17  0     -194.1026533313    -0.0000000017   0.000027562   0.000002838
  19 18  0     -194.1026533313    -0.0000000001   0.000006180   0.000000595
  20 19  0     -194.1026533313     0.0000000000   0.000000480   0.000000108

          -----------------
          DENSITY CONVERGED
          -----------------
     TIME TO FORM FOCK OPERATORS=      16.4 SECONDS (       0.8 SEC/ITER)
     TIME TO SOLVE SCF EQUATIONS=       0.1 SECONDS (       0.0 SEC/ITER)

 FINAL R-PBE ENERGY IS     -194.1026533313 AFTER  20 ITERATIONS
 DFT EXCHANGE + CORRELATION ENERGY =       -32.0826045871
 TOTAL ELECTRON NUMBER             =        39.9999568178

          ------------
          EIGENVECTORS
          ------------

                      1          2          3          4          5
                   -9.8340    -9.8285    -9.8221    -9.8173    -9.8137
                     A          A          A          A          A   
    1  C  1  S    0.277819   0.898199  -0.086592  -0.224544  -0.147774
    2  C  1  S    0.017415   0.066263  -0.007331  -0.022920  -0.015127
    3  C  1  S    0.024928  -0.048629   0.057512  -0.056080  -0.040816
    4  C  1  X    0.000754   0.000083  -0.001200   0.001538  -0.002395
    5  C  1  Y   -0.000635   0.003922  -0.000857  -0.002439  -0.001649
    6  C  1  Z    0.000257   0.000294   0.000068  -0.000206   0.000045
    7  C  1  X   -0.005410   0.000139   0.002940   0.004077  -0.008741
    8  C  1  Y    0.007597  -0.000295   0.010809  -0.019742  -0.015753
    9  C  1  Z   -0.002190  -0.000288  -0.001078  -0.000012  -0.001471
   10  C  2  S    0.059443   0.202487   0.485110   0.168096   0.809577
   11  C  2  S    0.002973   0.010377   0.032582   0.011677   0.064588
   12  C  2  S    0.004338  -0.029914  -0.040616   0.005510   0.023670
   13  C  2  X   -0.000007   0.001405  -0.001783  -0.001636  -0.004177
   14  C  2  Y    0.000240   0.001174  -0.000710  -0.000730   0.003407
   15  C  2  Z   -0.000175   0.000012  -0.000122  -0.000135  -0.000289
   16  C  2  X   -0.001659   0.006123   0.009994  -0.008576  -0.018818
   17  C  2  Y    0.002715  -0.008135   0.003934  -0.003686   0.009593
   18  C  2  Z    0.004796   0.001063   0.001534   0.000996  -0.001127
   19  C  3  S    0.104882   0.005682   0.797437   0.192566  -0.529031
   20  C  3  S    0.004503   0.001741   0.056006   0.015296  -0.043939
   21  C  3  S   -0.003647   0.014337  -0.075493   0.017212  -0.037277
   22  C  3  X    0.001219  -0.000777  -0.001756  -0.002772   0.001169
   23  C  3  Y   -0.000103   0.000158  -0.002173  -0.000273   0.004369
   24  C  3  Z    0.000272   0.000137   0.000390   0.000136  -0.000260
   25  C  3  X   -0.000404   0.001178   0.007961  -0.006927   0.014092
   26  C  3  Y    0.001227  -0.008559   0.005875  -0.008990   0.016254
   27  C  3  Z   -0.007076  -0.001063  -0.002155   0.000025  -0.003142
   28  C  4  S    0.715697  -0.337740   0.102349  -0.564272   0.087900
   29  C  4  S    0.051294  -0.025020   0.005497  -0.051348   0.008987
   30  C  4  S   -0.017774   0.062133   0.056078  -0.068567   0.038895
   31  C  4  X    0.000162  -0.000643  -0.001938  -0.000041   0.001951
   32  C  4  Y   -0.002736   0.002159  -0.000144   0.004272  -0.000519
   33  C  4  Z   -0.000639   0.000180   0.000109   0.000332  -0.000083
   34  C  4  X   -0.000210  -0.000333   0.002162   0.005958   0.013886
   35  C  4  Y   -0.002246  -0.011419  -0.010317   0.031483  -0.009251
   36  C  4  Z    0.005908   0.001373  -0.000597   0.003940  -0.001499
   37  C  5  S    0.596132  -0.033246  -0.270860   0.729567  -0.024712
   38  C  5  S    0.041393  -0.004762  -0.020055   0.061570  -0.002192
   39  C  5  S   -0.076223  -0.026812  -0.037053   0.093091   0.008603
   40  C  5  X    0.003054  -0.001562  -0.000728   0.005456   0.000275
   41  C  5  Y    0.001038   0.001803  -0.000600   0.002350  -0.001157
   42  C  5  Z    0.000490   0.000146  -0.000013   0.000204   0.000153
   43  C  5  X   -0.016204  -0.007460  -0.008917   0.035950   0.002910
   44  C  5  Y   -0.000132  -0.005802  -0.004108   0.014472  -0.001206
   45  C  5  Z   -0.004968  -0.003320  -0.001590   0.005035  -0.000484
   46  H  6  S    0.000736   0.001426   0.000649  -0.004637   0.000226
   47  H  6  S    0.013231   0.001916   0.000558  -0.000196  -0.001108
   48  H  7  S   -0.000631   0.000160   0.000341  -0.002899  -0.000552
   49  H  7  S    0.009197   0.001678   0.000099   0.001103  -0.000815
   50  H  8  S   -0.001414   0.000152  -0.000021   0.002266  -0.001052
   51  H  8  S    0.006475  -0.008527  -0.004176  -0.001730  -0.001404
   52  H  9  S   -0.000089   0.000735  -0.000142   0.003159  -0.001610
   53  H  9  S    0.009903  -0.007790  -0.002529  -0.000677  -0.001871
   54  H 10  S    0.001401  -0.000311  -0.000837  -0.001144   0.003208
   55  H 10  S    0.002211  -0.000762   0.013528   0.001635  -0.002214
   56  H 11  S   -0.000776  -0.000560  -0.001184  -0.000942   0.002397
   57  H 11  S   -0.000862  -0.001331   0.012389   0.001386  -0.003162
   58  H 12  S   -0.000818   0.000766  -0.000418  -0.000685  -0.002949
   59  H 12  S   -0.001092   0.003578   0.006522   0.001377   0.006446
   60  H 13  S    0.000406   0.000861  -0.000062  -0.000294  -0.003334
   61  H 13  S    0.000787   0.003927   0.007448   0.001758   0.006400
   62  H 14  S   -0.000669  -0.001903  -0.000080   0.001912   0.001261
   63  H 14  S    0.000299   0.012189  -0.005399   0.001037   0.000548
   64  H 15  S    0.000501  -0.001647   0.000287   0.001499   0.001970
   65  H 15  S   -0.000831   0.012019  -0.004871   0.001109   0.001377

                      6          7          8          9         10
                   -1.1122    -0.7853    -0.7228    -0.6574    -0.5819
                     A          A          A          A          A   
    1  C  1  S   -0.152434  -0.014679  -0.196924   0.025177   0.010635
    2  C  1  S    0.216940   0.022135   0.314889  -0.045576  -0.037713
    3  C  1  S    0.102258  -0.036505   0.250189   0.103654  -0.072026
    4  C  1  X    0.011534  -0.152481   0.009179  -0.037748   0.098769
    5  C  1  Y    0.135427   0.019118   0.006615   0.001120  -0.159493
    6  C  1  Z    0.003745   0.008379   0.027447   0.182424   0.029630
    7  C  1  X    0.015669  -0.040820   0.008553  -0.016135   0.035328
    8  C  1  Y    0.068957  -0.005071   0.053650   0.035512  -0.132277
    9  C  1  Z    0.012951   0.015901   0.026047   0.145007   0.035161
   10  C  2  S   -0.137024   0.183156  -0.068288   0.022197  -0.107480
   11  C  2  S    0.182164  -0.285867   0.109534  -0.039657   0.191848
   12  C  2  S   -0.075521  -0.115871   0.067437  -0.136351   0.310660
   13  C  2  X   -0.110725   0.038544  -0.068438   0.010125   0.127073
   14  C  2  Y    0.057270  -0.080951  -0.120669   0.034149  -0.081557
   15  C  2  Z   -0.004404   0.012919   0.010185   0.160404   0.019007
   16  C  2  X   -0.011185   0.033918  -0.031627   0.032832   0.037238
   17  C  2  Y    0.008670  -0.033407  -0.034720   0.004994  -0.022389
   18  C  2  Z   -0.013976   0.001969   0.002581   0.113780   0.013175
   19  C  3  S   -0.134127   0.148722   0.137272  -0.027186   0.011881
   20  C  3  S    0.182053  -0.232209  -0.222641   0.049481  -0.030340
   21  C  3  S    0.044406  -0.115381  -0.151273   0.086152   0.048912
   22  C  3  X   -0.079471  -0.029302   0.073628  -0.015107   0.163706
   23  C  3  Y   -0.094676   0.107091  -0.030381   0.021622   0.032400
   24  C  3  Z    0.007279  -0.011585  -0.000512   0.162765   0.006068
   25  C  3  X   -0.017363   0.003706   0.045068  -0.013350   0.055935
   26  C  3  Y   -0.038421   0.052486   0.012822  -0.002337   0.050292
   27  C  3  Z    0.019087  -0.002965  -0.003387   0.102985  -0.006148
   28  C  4  S   -0.160196  -0.105670   0.168505  -0.021127  -0.038421
   29  C  4  S    0.217533   0.143935  -0.267778   0.035037   0.049651
   30  C  4  S    0.019305   0.021819  -0.204149   0.007421   0.079093
   31  C  4  X    0.054361  -0.142433  -0.038737   0.046978  -0.233888
   32  C  4  Y   -0.128645  -0.089774  -0.025393   0.007862   0.089869
   33  C  4  Z   -0.011406  -0.013890   0.041247   0.204287   0.017988
   34  C  4  X    0.032438  -0.032023  -0.026787   0.025064  -0.178587
   35  C  4  Y   -0.042772  -0.021093   0.030911   0.005536   0.049435
   36  C  4  Z   -0.021160  -0.010250   0.023181   0.163787   0.041322
   37  C  5  S   -0.152353  -0.203304  -0.024043   0.015195  -0.043101
   38  C  5  S    0.182620   0.311665   0.047475  -0.023896   0.080741
   39  C  5  S    0.029807   0.247489   0.036119  -0.065038   0.065798
   40  C  5  X    0.132194   0.063039   0.036096  -0.002399  -0.173685
   41  C  5  Y    0.024105   0.058225  -0.162415  -0.027387   0.139279
   42  C  5  Z    0.007957   0.016007   0.039378   0.211618   0.020965
   43  C  5  X    0.023631   0.073540   0.024287  -0.013357  -0.057128
   44  C  5  Y    0.013329   0.030725  -0.060283  -0.013855   0.041575
   45  C  5  Z    0.013641   0.008305   0.038494   0.149037  -0.020093
   46  H  6  S    0.021637   0.071619   0.038949   0.080894   0.073374
   47  H  6  S   -0.010544  -0.002807  -0.004662  -0.011193   0.040196
   48  H  7  S    0.019264   0.063106  -0.007707  -0.076543   0.070360
   49  H  7  S   -0.000770  -0.000208   0.006048   0.013732   0.020472
   50  H  8  S    0.020228   0.031823  -0.062180   0.069651   0.079635
   51  H  8  S    0.016251   0.005339  -0.005089  -0.017834  -0.010765
   52  H  9  S    0.020074   0.051329  -0.088312  -0.066622   0.097865
   53  H  9  S    0.005830   0.002651   0.002536   0.024854   0.012280
   54  H 10  S    0.015041  -0.045692  -0.055112   0.069337   0.044147
   55  H 10  S   -0.000507  -0.001465  -0.002084  -0.011927   0.003324
   56  H 11  S    0.017385  -0.043869  -0.051269  -0.038795   0.037074
   57  H 11  S    0.008362  -0.003071  -0.003798   0.006901  -0.004765
   58  H 12  S    0.017851  -0.050768   0.034397   0.037535   0.112894
   59  H 12  S    0.016459  -0.005935   0.001593  -0.006187   0.002427
   60  H 13  S    0.015706  -0.058539   0.025780  -0.061766   0.102583
   61  H 13  S    0.008634  -0.006196   0.001723   0.018126   0.007010
   62  H 14  S    0.018596   0.003697   0.076412  -0.065888   0.038493
   63  H 14  S    0.008765   0.006193   0.005970   0.010421   0.006762
   64  H 15  S    0.018075   0.013636   0.093276   0.053334   0.056186
   65  H 15  S    0.001423   0.000891  -0.001638  -0.024847  -0.000078

                     11         12         13         14         15
                   -0.5595    -0.5421    -0.4622    -0.4192    -0.3490
                     A          A          A          A          A   
    1  C  1  S    0.022185  -0.094140   0.000047   0.005068  -0.014994
    2  C  1  S   -0.033206   0.173856   0.003195  -0.014548   0.037574
    3  C  1  S    0.053115   0.000876   0.077562   0.073483  -0.068354
    4  C  1  X    0.288096   0.085497  -0.038393   0.006474  -0.108978
    5  C  1  Y    0.069414  -0.121208   0.007616  -0.003683   0.050628
    6  C  1  Z    0.032587  -0.012875   0.027241   0.258615  -0.027363
    7  C  1  X    0.196759   0.019320  -0.042315  -0.016187   0.084992
    8  C  1  Y    0.067215  -0.091044   0.013243   0.026126   0.001006
    9  C  1  Z    0.023096  -0.017185   0.033118   0.337076  -0.043972
   10  C  2  S   -0.058272   0.059429  -0.012884   0.006815   0.049886
   11  C  2  S    0.115427  -0.110726   0.023778  -0.015130  -0.125291
   12  C  2  S   -0.103525   0.052353  -0.026390  -0.000696  -0.154965
   13  C  2  X   -0.158046  -0.087703   0.015035  -0.005179   0.219543
   14  C  2  Y   -0.140179  -0.225028   0.042674  -0.020743  -0.194063
   15  C  2  Z    0.039589   0.023560   0.254992   0.069897   0.032969
   16  C  2  X   -0.050255  -0.071767   0.008987  -0.000596   0.207319
   17  C  2  Y   -0.052045  -0.134545   0.008778  -0.006248  -0.111762
   18  C  2  Z    0.039940   0.021304   0.273232   0.055994   0.055445
   19  C  3  S    0.118226  -0.005920  -0.001230  -0.018507   0.037717
   20  C  3  S   -0.217255   0.015686   0.004031   0.036041  -0.092949
   21  C  3  S   -0.109038   0.020083   0.040183  -0.043754   0.006293
   22  C  3  X   -0.097393  -0.205637   0.018690  -0.019207   0.077316
   23  C  3  Y   -0.056304   0.226290  -0.023447   0.028961   0.244383
   24  C  3  Z    0.025582   0.020286   0.183200  -0.204059   0.000792
   25  C  3  X   -0.065201  -0.104254   0.012381   0.018213   0.115568
   26  C  3  Y   -0.023869   0.114331  -0.022270   0.021372   0.119619
   27  C  3  Z    0.025534   0.022518   0.198894  -0.223193  -0.012732
   28  C  4  S   -0.071155  -0.067784   0.032839   0.005877  -0.048321
   29  C  4  S    0.137082   0.134358  -0.059477  -0.006698   0.083873
   30  C  4  S    0.072937   0.031994  -0.030529   0.069811  -0.176672
   31  C  4  X   -0.093582   0.176205   0.012224   0.020504  -0.029449
   32  C  4  Y   -0.106346   0.202956  -0.008430  -0.000540  -0.177884
   33  C  4  Z    0.003156  -0.018326  -0.138120  -0.205664  -0.015745
   34  C  4  X   -0.063513   0.109139  -0.001349   0.024211   0.115767
   35  C  4  Y   -0.088286   0.124343  -0.025451  -0.008664  -0.012336
   36  C  4  Z   -0.001043  -0.008493  -0.148256  -0.263848   0.001228
   37  C  5  S    0.053179   0.091212  -0.019814   0.017280  -0.039100
   38  C  5  S   -0.120656  -0.162695   0.036395  -0.040057   0.111408
   39  C  5  S   -0.163198   0.081753  -0.067558  -0.118768   0.409204
   40  C  5  X    0.038648  -0.047941  -0.009052   0.005219   0.320319
   41  C  5  Y    0.255222  -0.083590  -0.023100   0.006708   0.079460
   42  C  5  Z    0.012751  -0.046902  -0.226063   0.055086   0.007005
   43  C  5  X   -0.012566   0.002351  -0.037518  -0.006529   0.301039
   44  C  5  Y    0.100670  -0.016933   0.011842   0.003961   0.061753
   45  C  5  Z    0.002629  -0.041633  -0.260879   0.069170   0.017883
   46  H  6  S   -0.083097  -0.033654  -0.098178   0.045405  -0.131607
   47  H  6  S   -0.020672  -0.011522   0.007145   0.026727  -0.132289
   48  H  7  S   -0.055934  -0.008418   0.132587  -0.040015  -0.141803
   49  H  7  S   -0.014727  -0.022500   0.023993   0.000843  -0.130721
   50  H  8  S    0.015089   0.071170  -0.091698  -0.123134  -0.045231
   51  H  8  S    0.008340   0.022891  -0.012245  -0.033233  -0.010835
   52  H  9  S    0.018829   0.072542   0.059338   0.098601  -0.051480
   53  H  9  S    0.005420   0.020883   0.008703   0.010400  -0.020762
   54  H 10  S   -0.092080   0.034919   0.081330  -0.098344   0.106018
   55  H 10  S   -0.025525   0.006207  -0.001701  -0.016637   0.071475
   56  H 11  S   -0.111043  -0.000558  -0.095428   0.129592   0.085080
   57  H 11  S   -0.023904   0.005245  -0.014820   0.041189   0.051360
   58  H 12  S    0.023911  -0.008518   0.128215   0.044961   0.126571
   59  H 12  S    0.015581  -0.017513   0.018894   0.015963   0.082398
   60  H 13  S   -0.011876  -0.029298  -0.116707  -0.042028   0.104030
   61  H 13  S    0.017730  -0.014121  -0.008651  -0.016932   0.083766
   62  H 14  S   -0.059163   0.097651  -0.014473  -0.140619   0.008844
   63  H 14  S   -0.008154   0.024371  -0.009047  -0.031074   0.006305
   64  H 15  S   -0.052301   0.080158   0.007077   0.150656  -0.034330
   65  H 15  S   -0.015581   0.029546  -0.014270   0.025280  -0.005623

                     16         17         18         19         20
                   -0.3036    -0.2786    -0.2372    -0.1921    -0.1709
                     A          A          A          A          A   
    1  C  1  S   -0.070607   0.015847   0.088702   0.016867  -0.008176
    2  C  1  S    0.149545  -0.029776  -0.189117  -0.035344   0.017610
    3  C  1  S   -0.150361   0.109664  -0.288424  -0.171080  -0.004347
    4  C  1  X    0.157354   0.168492   0.062287   0.003625   0.023164
    5  C  1  Y   -0.043688   0.206145  -0.258633  -0.039748   0.045514
    6  C  1  Z    0.001439   0.002805  -0.014123  -0.118336  -0.169591
    7  C  1  X    0.072160   0.123011   0.047866   0.044653   0.027955
    8  C  1  Y   -0.138675   0.284697  -0.289744  -0.073195   0.049379
    9  C  1  Z   -0.008404  -0.005466  -0.036961  -0.275988  -0.378388
   10  C  2  S    0.047215  -0.016382   0.043700   0.006595  -0.020733
   11  C  2  S   -0.093316   0.042127  -0.097599  -0.013378   0.051005
   12  C  2  S    0.376158   0.032081  -0.040238  -0.024288   0.108471
   13  C  2  X   -0.222207  -0.119142   0.092521   0.001128  -0.036059
   14  C  2  Y    0.038404  -0.241204  -0.013126   0.012358  -0.001244
   15  C  2  Z    0.011419  -0.009182  -0.020663   0.202120   0.063711
   16  C  2  X   -0.325220  -0.045719   0.038375  -0.014806  -0.019927
   17  C  2  Y    0.164833  -0.151106  -0.061695   0.014151   0.018254
   18  C  2  Z    0.010703  -0.016225  -0.045819   0.448537   0.143158
   19  C  3  S   -0.043521   0.006369  -0.068702  -0.012363  -0.001094
   20  C  3  S    0.081717  -0.013492   0.158877   0.030013   0.002906
   21  C  3  S   -0.328496  -0.152362   0.060157   0.104333   0.001355
   22  C  3  X    0.229279  -0.026910  -0.189850  -0.036555   0.015445
   23  C  3  Y    0.065472   0.222350   0.008015  -0.019309   0.009604
   24  C  3  Z    0.007426  -0.009233   0.046953  -0.191090   0.048969
   25  C  3  X    0.244015   0.042532  -0.090617  -0.055307  -0.009350
   26  C  3  Y    0.221925   0.224654  -0.004148  -0.034547   0.049638
   27  C  3  Z   -0.006090  -0.018042   0.084189  -0.425574   0.121933
   28  C  4  S    0.039691   0.074236  -0.052192  -0.009826   0.013568
   29  C  4  S   -0.093836  -0.153735   0.108833   0.023451  -0.027881
   30  C  4  S    0.108687   0.098668   0.510370   0.064479   0.036452
   31  C  4  X   -0.201383   0.086346   0.158644   0.020688  -0.032770
   32  C  4  Y   -0.095384  -0.001977  -0.259499  -0.027397   0.059727
   33  C  4  Z    0.010020   0.033429  -0.042011   0.117368  -0.173126
   34  C  4  X   -0.092719   0.132631   0.149961  -0.012687  -0.097129
   35  C  4  Y   -0.107810  -0.096036  -0.412124  -0.064542   0.042708
   36  C  4  Z    0.014046   0.043767  -0.087291   0.255727  -0.420699
   37  C  5  S    0.003111  -0.066725  -0.023559  -0.004269   0.000736
   38  C  5  S   -0.013857   0.147973   0.024960   0.001159  -0.003438
   39  C  5  S   -0.013124  -0.079282  -0.251662   0.077313  -0.097342
   40  C  5  X    0.009200  -0.128543  -0.128198  -0.038936  -0.019384
   41  C  5  Y    0.177040  -0.079490   0.228383   0.013946  -0.047639
   42  C  5  Z    0.000925  -0.008327   0.043421   0.005019   0.202793
   43  C  5  X    0.026734  -0.234283  -0.187920  -0.020808  -0.027846
   44  C  5  Y    0.102857  -0.053260   0.042471  -0.044690  -0.097941
   45  C  5  Z   -0.022473  -0.022241   0.064753  -0.003395   0.491041
   46  H  6  S   -0.048783   0.125184   0.101388  -0.006873   0.225479
   47  H  6  S   -0.030982   0.112273   0.121818  -0.017029   0.227414
   48  H  7  S   -0.024808   0.162841   0.047475   0.019302  -0.212970
   49  H  7  S   -0.021116   0.143192   0.081003   0.026560  -0.200396
   50  H  8  S   -0.036105  -0.064414  -0.206583   0.096360  -0.152332
   51  H  8  S   -0.039314  -0.058228  -0.233197   0.074130  -0.147850
   52  H  9  S   -0.029882  -0.102011  -0.154480  -0.134140   0.179472
   53  H  9  S   -0.029896  -0.072396  -0.208761  -0.131436   0.173331
   54  H 10  S    0.167344   0.098081   0.018494  -0.200488   0.061721
   55  H 10  S    0.143415   0.091868  -0.014069  -0.189251   0.058469
   56  H 11  S    0.151763   0.095503  -0.043308   0.191776  -0.064937
   57  H 11  S    0.131040   0.090696  -0.043200   0.161024  -0.073486
   58  H 12  S   -0.165973   0.017845  -0.006503   0.208236   0.069674
   59  H 12  S   -0.151103   0.009226   0.004750   0.194665   0.052937
   60  H 13  S   -0.186265   0.033231   0.043787  -0.200994  -0.085784
   61  H 13  S   -0.159712   0.021002   0.049274  -0.170145  -0.110752
   62  H 14  S    0.082370  -0.169793   0.121640   0.132003   0.123535
   63  H 14  S    0.067748  -0.139196   0.144711   0.138143   0.099746
   64  H 15  S    0.061761  -0.157507   0.081407  -0.113361  -0.187008
   65  H 15  S    0.053821  -0.138056   0.115178  -0.076172  -0.189867

                     21         22         23         24         25
                   -0.0463    -0.0181     0.0732     0.0794     0.0965
                     A          A          A          A          A   
    1  C  1  S   -0.015461  -0.068915   0.003827  -0.008046   0.026205
    2  C  1  S    0.035460   0.179777   0.000249  -0.002105  -0.004678
    3  C  1  S    0.145530   0.036047  -0.141778   0.446901  -0.577165
    4  C  1  X   -0.020028  -0.020121  -0.029136  -0.048507   0.022276
    5  C  1  Y   -0.007181  -0.070720   0.037988  -0.030125   0.189808
    6  C  1  Z    0.131064   0.010917   0.028862   0.023213  -0.132337
    7  C  1  X   -0.080025  -0.042265   0.012866   0.004365   0.123838
    8  C  1  Y   -0.015524  -0.349113   0.075784  -0.047075   0.588838
    9  C  1  Z    0.292297   0.044259   0.092089   0.072678  -0.372211
   10  C  2  S   -0.006047  -0.065764   0.039912   0.039265   0.018630
   11  C  2  S    0.017350   0.164332  -0.042408  -0.051790  -0.013380
   12  C  2  S    0.345349   0.474687  -0.850313  -1.073014  -1.036014
   13  C  2  X    0.001433   0.036589  -0.156903  -0.095829  -0.068545
   14  C  2  Y    0.002133  -0.031115   0.068866   0.045288   0.039225
   15  C  2  Z    0.118623  -0.014397   0.132932  -0.173847  -0.070591
   16  C  2  X   -0.025342   0.142248  -0.402849  -0.176730  -0.148815
   17  C  2  Y    0.048621  -0.189563   0.229764   0.139048  -0.064153
   18  C  2  Z    0.210742  -0.039637   0.355187  -0.484505  -0.210079
   19  C  3  S   -0.003307  -0.069851   0.035093   0.019844  -0.025785
   20  C  3  S    0.019013   0.174671  -0.050691  -0.015744   0.012567
   21  C  3  S   -0.437934   1.036694  -0.567029  -0.106133   1.187187
   22  C  3  X    0.001011   0.011025  -0.082758  -0.095873   0.087232
   23  C  3  Y    0.010992   0.040766  -0.057239  -0.078713   0.111749
   24  C  3  Z    0.114854  -0.019692   0.079697  -0.126500   0.081091
   25  C  3  X    0.077894   0.017894  -0.173066  -0.286934   0.269916
   26  C  3  Y    0.112186   0.085511  -0.222867  -0.293405   0.140897
   27  C  3  Z    0.222379  -0.026193   0.224436  -0.328109   0.266913
   28  C  4  S   -0.009474  -0.067410  -0.012104  -0.002166  -0.033944
   29  C  4  S    0.026390   0.178058   0.010407   0.007728   0.021558
   30  C  4  S    0.555376  -0.394089   0.370275  -0.356493   1.268483
   31  C  4  X    0.016647  -0.039612  -0.079640  -0.032521  -0.077845
   32  C  4  Y    0.002422   0.071776   0.093008   0.010664   0.155005
   33  C  4  Z    0.133417  -0.016566  -0.104568   0.092191   0.137889
   34  C  4  X    0.055101  -0.168200  -0.176878  -0.079199  -0.381011
   35  C  4  Y   -0.067586   0.421788   0.270230   0.142507   0.320447
   36  C  4  Z    0.254059  -0.008878  -0.262148   0.215688   0.410941
   37  C  5  S   -0.002455  -0.086705  -0.043140  -0.029288   0.008941
   38  C  5  S    0.009475   0.193571   0.045836   0.041797  -0.002910
   39  C  5  S   -0.354428   1.592442   0.805074   0.717464  -0.724348
   40  C  5  X   -0.006407  -0.088171  -0.146772  -0.115701   0.022671
   41  C  5  Y   -0.028321  -0.016329  -0.012793  -0.026594   0.005845
   42  C  5  Z    0.151141  -0.014158  -0.120100   0.174761  -0.007645
   43  C  5  X   -0.101482  -0.092578  -0.327194  -0.250952  -0.001465
   44  C  5  Y   -0.080250   0.000926  -0.073841  -0.036770  -0.186303
   45  C  5  Z    0.270529  -0.016954  -0.337197   0.498209  -0.081472
   46  H  6  S   -0.100463  -0.078590  -0.011411  -0.109447  -0.002478
   47  H  6  S   -0.429896  -0.599782  -0.137122  -1.113368   0.098271
   48  H  7  S    0.077072  -0.057818  -0.099620   0.018202   0.009473
   49  H  7  S    0.358099  -0.588444  -0.972036   0.118130   0.153895
   50  H  8  S   -0.121831  -0.029949   0.003982  -0.057071  -0.068654
   51  H  8  S   -0.511576  -0.288819  -0.032215  -0.387208  -1.169368
   52  H  9  S    0.123912  -0.093125  -0.055523   0.022514   0.012747
   53  H  9  S    0.410782  -0.497141  -0.660896   0.261515  -0.249793
   54  H 10  S   -0.096701  -0.044659  -0.000657   0.092713  -0.050891
   55  H 10  S   -0.365720  -0.398640   0.184546   0.911956  -0.870862
   56  H 11  S    0.084539  -0.045985   0.063086  -0.034156  -0.000317
   57  H 11  S    0.365723  -0.471187   0.714120  -0.097506  -0.267097
   58  H 12  S   -0.095369  -0.028469  -0.014024   0.099640   0.042879
   59  H 12  S   -0.422750  -0.334975   0.170540   1.136555   0.633973
   60  H 13  S    0.088222  -0.051321   0.100801  -0.028870  -0.004893
   61  H 13  S    0.308821  -0.418588   1.144467  -0.047727   0.130391
   62  H 14  S    0.103841  -0.073342   0.007662  -0.013402  -0.016158
   63  H 14  S    0.361942  -0.450238   0.176434  -0.110047   0.206585
   64  H 15  S   -0.121592  -0.038233  -0.005196   0.001031   0.077413
   65  H 15  S   -0.492674  -0.325927   0.010419  -0.095570   1.140651

                     26         27         28         29         30
                    0.1050     0.1925     0.2071     0.2751     0.2785
                     A          A          A          A          A   
    1  C  1  S    0.026523  -0.033395  -0.073996   0.018610   0.007814
    2  C  1  S   -0.020541   0.062850   0.067344  -0.088190   0.005560
    3  C  1  S   -0.851590   2.297548   5.325221   0.155610  -0.486299
    4  C  1  X    0.014460  -0.025677   0.014954  -0.014283   0.058501
    5  C  1  Y    0.144002  -0.045601  -0.152746  -0.041493  -0.024937
    6  C  1  Z    0.205152  -0.010059   0.006369  -0.025998   0.178358
    7  C  1  X    0.075455   0.403018   0.065580  -0.326082   0.432265
    8  C  1  Y    0.421194   0.000075   0.010588  -0.044870  -0.297373
    9  C  1  Z    0.636599  -0.016247  -0.014368  -0.157753   1.521601
   10  C  2  S    0.000214   0.072115   0.049633   0.016910   0.010899
   11  C  2  S    0.011574  -0.112700  -0.070881  -0.095557   0.050391
   12  C  2  S   -0.416308  -5.324175  -3.328438   1.325282  -0.444304
   13  C  2  X   -0.028080  -0.102929  -0.060129   0.015785   0.001165
   14  C  2  Y    0.026396   0.065272   0.037125  -0.020844  -0.013373
   15  C  2  Z    0.039847   0.008038   0.012210   0.124961  -0.179556
   16  C  2  X   -0.075499   0.042741   0.349983  -0.297224   0.198895
   17  C  2  Y   -0.086633  -0.345494   0.424867   0.082261  -0.010802
   18  C  2  Z    0.124091   0.083406   0.121863   1.060010  -1.339541
   19  C  3  S   -0.028681  -0.091493   0.008675   0.007261   0.005779
   20  C  3  S    0.026848   0.142745  -0.010647  -0.075523   0.021226
   21  C  3  S    1.079369   6.147108  -0.888041  -1.778523  -3.099501
   22  C  3  X    0.067752   0.078866   0.015806   0.027672   0.072769
   23  C  3  Y    0.073104   0.102265   0.004359   0.008935  -0.040621
   24  C  3  Z   -0.168735   0.016087  -0.019627  -0.207660   0.049283
   25  C  3  X    0.183500  -0.107859   0.566452   0.421059   1.147479
   26  C  3  Y    0.102095  -0.268714  -0.234205   0.176142   0.094776
   27  C  3  Z   -0.504249   0.181181  -0.120392  -1.678181   0.433217
   28  C  4  S   -0.004092   0.064043  -0.049226   0.020880   0.006677
   29  C  4  S   -0.005809  -0.080203   0.031980  -0.150046  -0.159132
   30  C  4  S    0.193974  -5.188063   3.906619   3.781004   5.374154
   31  C  4  X   -0.047108   0.056497  -0.027996  -0.009869   0.067074
   32  C  4  Y    0.086247  -0.113788   0.125633   0.009061   0.014808
   33  C  4  Z   -0.135278  -0.013876  -0.017124   0.187332   0.049322
   34  C  4  X   -0.243884  -0.201651  -0.040605   0.278602   0.872472
   35  C  4  Y    0.257566   0.012844   0.001093  -0.841809  -0.973136
   36  C  4  Z   -0.418227   0.041597  -0.115338   1.533714   0.397232
   37  C  5  S    0.009414  -0.021794   0.086341   0.003825  -0.001185
   38  C  5  S   -0.015214   0.063620  -0.204427  -0.049507  -0.092705
   39  C  5  S   -0.061608   1.939571  -4.690376  -2.618652  -1.093349
   40  C  5  X    0.032192  -0.019983   0.103365  -0.055488  -0.013608
   41  C  5  Y    0.003595  -0.011956   0.031853  -0.031328  -0.057045
   42  C  5  Z    0.056954  -0.005387  -0.000517  -0.106706  -0.162973
   43  C  5  X    0.147176   0.018798  -0.024311  -0.604883  -0.123671
   44  C  5  Y   -0.132244   0.560336   0.191063  -0.230030  -0.579662
   45  C  5  Z    0.198215   0.060197  -0.012988  -1.164050  -1.403240
   46  H  6  S   -0.011313  -0.021097   0.061065   0.013331   0.070463
   47  H  6  S   -0.128374  -0.351788   1.470835   0.986916   1.132436
   48  H  7  S    0.031753  -0.008985   0.044326   0.044199   0.096529
   49  H  7  S    0.457831  -0.535586   1.511719  -0.929244  -1.306987
   50  H  8  S    0.035314  -0.004974   0.021750   0.000683   0.039108
   51  H  8  S    0.246269   1.379146  -1.034104  -1.693135  -0.909861
   52  H  9  S   -0.057465  -0.001261   0.015168   0.063596   0.105692
   53  H  9  S   -0.862585   1.214303  -1.241908   1.053396   0.025655
   54  H 10  S    0.028333  -0.008919  -0.011389   0.015045  -0.035249
   55  H 10  S    0.122605  -1.649993   0.230383   1.416896  -0.178395
   56  H 11  S   -0.079006   0.000750  -0.015759   0.050056   0.020971
   57  H 11  S   -1.135473  -1.494561  -0.005572  -1.432703   0.649144
   58  H 12  S   -0.003938   0.001023  -0.012159  -0.005860  -0.090150
   59  H 12  S   -0.018158   1.322024   0.838629  -1.078032   1.389857
   60  H 13  S    0.014912   0.011276  -0.014329   0.028432  -0.039350
   61  H 13  S    0.281406   1.441432   0.978469   0.825261  -1.032415
   62  H 14  S    0.083889  -0.001711   0.020955   0.031227   0.019094
   63  H 14  S    1.345722  -0.647536  -1.483061  -0.180502   1.351056
   64  H 15  S   -0.040194  -0.008312   0.007818  -0.024009  -0.067267
   65  H 15  S   -0.210614  -0.508485  -1.705211   0.008328  -1.428821

                     31         32         33         34         35
                    0.3105     0.3307     0.3743     0.4034     0.4331
                     A          A          A          A          A   
    1  C  1  S    0.015335   0.004458  -0.079542  -0.041614   0.059214
    2  C  1  S    0.066577  -0.302605   0.670267   0.325398  -0.545475
    3  C  1  S   -2.694186   9.539124  -8.646222 -14.994522   1.311786
    4  C  1  X    0.167095   0.087513   0.125551  -0.080241   0.205090
    5  C  1  Y   -0.021842   0.038416   0.133848   0.090927  -0.088614
    6  C  1  Z   -0.083685  -0.020238   0.041426  -0.025993   0.039363
    7  C  1  X    2.059446   1.320886   1.410050  -1.465441   1.605727
    8  C  1  Y   -0.927952   2.287230  -1.754606  -2.857989   0.324450
    9  C  1  Z   -0.681062  -0.023243   0.169222  -0.199345   0.138810
   10  C  2  S   -0.001223   0.002913  -0.036230   0.085312   0.040639
   11  C  2  S    0.250798   0.047716   0.285322  -0.707112  -0.383395
   12  C  2  S   -5.193135  -1.492657  -2.285227  18.087349 -12.249899
   13  C  2  X   -0.021790   0.103528  -0.107595   0.051591   0.022988
   14  C  2  Y   -0.008954   0.149296  -0.056391  -0.170740  -0.219389
   15  C  2  Z    0.064054   0.006976   0.021410  -0.007800   0.018372
   16  C  2  X    1.001653   1.846361   0.091895  -3.673847   2.087779
   17  C  2  Y   -0.776547   2.352795  -0.427526   1.689454  -1.542556
   18  C  2  Z    0.593883   0.101925   0.239707  -0.215685   0.186475
   19  C  3  S   -0.003103   0.004497  -0.019916   0.011694   0.078877
   20  C  3  S    0.144329   0.240729   0.165821  -0.117903  -0.741850
   21  C  3  S   -1.867389  -7.591161   6.962625 -12.428160  17.734811
   22  C  3  X    0.120521  -0.037517  -0.102118  -0.113081  -0.005694
   23  C  3  Y   -0.120336   0.048142  -0.007382   0.194947   0.149121
   24  C  3  Z   -0.011349  -0.008511  -0.025858   0.000611   0.037581
   25  C  3  X    2.068538   0.902387  -1.032480   1.737352  -2.499827
   26  C  3  Y   -1.006941   1.885751  -1.422883   1.871042  -3.266991
   27  C  3  Z   -0.146836  -0.355619  -0.207219  -0.264520   0.431706
   28  C  4  S   -0.007774   0.015616  -0.099994   0.018057   0.025590
   29  C  4  S   -0.205921  -0.022850   0.718335  -0.260749  -0.283702
   30  C  4  S    6.892633  -1.207401 -18.447549   0.714350 -17.556192
   31  C  4  X    0.110272   0.146776   0.127309   0.247554  -0.033523
   32  C  4  Y    0.005651   0.074970  -0.106466   0.142256   0.036782
   33  C  4  Z   -0.034945   0.011192   0.078721  -0.032376   0.033517
   34  C  4  X    1.584659   1.759173   0.468530   2.037176  -1.747215
   35  C  4  Y   -1.021567   1.098791   4.071167   0.338517   2.789436
   36  C  4  Z   -0.672541   0.093460   0.854112  -0.196338   0.400571
   37  C  5  S   -0.015973   0.000102  -0.007753   0.058218   0.075385
   38  C  5  S   -0.106010  -0.095365   0.183664  -0.426877  -0.655849
   39  C  5  S    2.765203   1.054683  20.179090   9.827338  13.350039
   40  C  5  X    0.000212  -0.095910   0.183259  -0.018570  -0.155716
   41  C  5  Y   -0.138831   0.102167   0.056445  -0.210244   0.092211
   42  C  5  Z    0.077259  -0.006761  -0.059534   0.028941  -0.002425
   43  C  5  X    0.857046  -0.337500   3.826563   1.766206   2.908218
   44  C  5  Y   -1.568556   1.797119   1.577039   1.181685   0.891475
   45  C  5  Z    0.799734   0.119527   0.064406   0.311537   0.303772
   46  H  6  S    0.179451   0.154506  -0.193704  -0.090177   0.188759
   47  H  6  S   -1.516051  -0.600096  -1.075694  -1.206178  -1.618925
   48  H  7  S    0.116354   0.176480  -0.122916  -0.031906  -0.026172
   49  H  7  S    0.047596  -0.670990  -2.049932  -0.869078  -1.473579
   50  H  8  S    0.151399  -0.093804   0.031072  -0.034555   0.188141
   51  H  8  S   -0.391691   0.273100   1.059870   0.131515   1.310871
   52  H  9  S    0.133296  -0.129035  -0.135167   0.170464  -0.033898
   53  H  9  S   -1.052203   0.510092   2.145159  -0.332041   1.370942
   54  H 10  S   -0.049445  -0.206031  -0.103032   0.024139   0.241796
   55  H 10  S    0.333821   1.053292   0.125239   0.957756  -1.743294
   56  H 11  S   -0.034925  -0.190004  -0.092004   0.117459  -0.042039
   57  H 11  S    0.065295   0.834354  -0.579693   0.992894  -1.482538
   58  H 12  S   -0.162090  -0.013605  -0.050891  -0.025147   0.122217
   59  H 12  S    0.247397  -0.020042   0.316208  -1.642613   0.899092
   60  H 13  S   -0.189371  -0.030400  -0.139210   0.069525  -0.052030
   61  H 13  S    1.209920   0.119250   0.600797  -1.725894   0.881635
   62  H 14  S   -0.077868   0.210890  -0.100544   0.105863  -0.083056
   63  H 14  S   -0.176566  -0.968125   0.960559   1.148428  -0.009087
   64  H 15  S   -0.103981   0.188484  -0.001673  -0.004348   0.241698
   65  H 15  S    1.320013  -0.853783   0.769214   1.577157  -0.219028

                     36         37         38         39         40
                    0.4917     0.5222     0.5457     0.6081     0.6605
                     A          A          A          A          A   
    1  C  1  S    0.000418   0.076945   0.085484  -0.020961   0.069636
    2  C  1  S    0.049908  -0.700904  -0.790962   0.206594  -0.431496
    3  C  1  S   -0.426508   0.982833  -8.298333  24.133571  -3.911234
    4  C  1  X    0.262806  -0.157642   0.028006   0.002229  -0.056527
    5  C  1  Y   -0.048405  -0.129231  -0.270885   0.134257   0.139566
    6  C  1  Z   -0.040090   0.020116  -0.055348  -0.007760  -0.078692
    7  C  1  X   -0.613403   2.175721  -2.087136  -1.186118  -2.671232
    8  C  1  Y   -0.241713   0.553035  -0.421676   5.717271  -0.310322
    9  C  1  Z    0.025101   0.029841   0.068456  -0.053462   0.129826
   10  C  2  S    0.012296   0.097953  -0.006637   0.001032  -0.018832
   11  C  2  S   -0.119464  -1.035999   0.086034  -0.000896   0.298300
   12  C  2  S    8.151128  -3.636786   9.047221 -21.828675   2.012808
   13  C  2  X   -0.081953   0.330172  -0.138294   0.095893  -0.080960
   14  C  2  Y   -0.142544  -0.005957  -0.041904  -0.194654   0.124306
   15  C  2  Z   -0.012691   0.006852  -0.009440  -0.014167  -0.025186
   16  C  2  X   -1.138442  -0.693303  -3.009625   4.120809  -1.599809
   17  C  2  Y    2.745775  -0.463994  -1.027445  -3.706499  -2.565205
   18  C  2  Z   -0.204295   0.117196  -0.156313   0.356110  -0.027917
   19  C  3  S    0.076820   0.015403  -0.084203  -0.000155   0.028284
   20  C  3  S   -0.641926  -0.137391   0.855182   0.233761  -0.221503
   21  C  3  S  -12.060766   1.701857  -3.986390  11.062305   0.033262
   22  C  3  X    0.110590   0.119974  -0.213287  -0.139121   0.255198
   23  C  3  Y    0.226279  -0.048101  -0.115418  -0.078715  -0.122821
   24  C  3  Z   -0.022070   0.023348   0.024141   0.007305   0.067046
   25  C  3  X    1.760293   1.072329   1.694373   1.507694   1.626210
   26  C  3  Y    1.868065  -1.661247   1.237013  -3.974400  -0.948741
   27  C  3  Z   -0.283213  -0.037481  -0.025794   0.290117  -0.150605
   28  C  4  S   -0.056862  -0.049370  -0.078820  -0.049353   0.017137
   29  C  4  S    0.488574   0.447417   0.740908   0.597470  -0.218805
   30  C  4  S   12.725174  -1.986169   0.012900   9.115312  -9.011365
   31  C  4  X   -0.033652   0.091134   0.141153   0.159321  -0.086872
   32  C  4  Y   -0.212476  -0.122087  -0.134571  -0.038391  -0.053250
   33  C  4  Z   -0.078041  -0.015947  -0.010073  -0.001783   0.125526
   34  C  4  X    1.594539   0.721909  -0.788278  -0.550188   4.389992
   35  C  4  Y   -1.782411   2.071209   0.336673  -1.950313   2.765419
   36  C  4  Z   -0.292015   0.018316   0.022269  -0.284104   0.221626
   37  C  5  S   -0.024108  -0.044299   0.044866  -0.016456   0.134666
   38  C  5  S    0.225979   0.556032  -0.558902  -0.015921  -0.919601
   39  C  5  S   -8.264951   3.867682   2.815046 -23.274378  12.978891
   40  C  5  X   -0.044702   0.216108  -0.121208  -0.269103   0.167928
   41  C  5  Y    0.196301  -0.032233   0.052076  -0.035268   0.158154
   42  C  5  Z    0.028670  -0.027108  -0.031826   0.011779   0.109253
   43  C  5  X   -2.136467   0.017153   1.678496  -5.824118   0.874215
   44  C  5  Y   -2.136782  -0.512791  -0.864105   0.739044   4.020734
   45  C  5  Z   -0.203439   0.117502  -0.092877  -0.254933   0.060424
   46  H  6  S   -0.119071   0.001505   0.151559  -0.362005  -0.128955
   47  H  6  S    0.396661  -0.294138  -0.381200   2.126516  -1.403875
   48  H  7  S   -0.021629  -0.090124   0.095697  -0.314319  -0.108265
   49  H  7  S    0.663175  -0.399527  -0.200915   2.041331  -1.695583
   50  H  8  S   -0.120996   0.004046  -0.093208  -0.046691   0.046493
   51  H  8  S   -0.586881  -0.173280   0.188218  -0.500155   0.913636
   52  H  9  S    0.204013  -0.113131   0.029740   0.110118   0.484171
   53  H  9  S   -0.817573   0.104982   0.138097  -0.740147   0.481630
   54  H 10  S   -0.211878   0.084725  -0.170582  -0.015077  -0.102809
   55  H 10  S    0.676104  -0.016046   0.305359  -0.931972   0.138206
   56  H 11  S    0.081859  -0.018253  -0.002409   0.103945   0.087364
   57  H 11  S    0.608146  -0.076940   0.128284  -1.041038  -0.083290
   58  H 12  S   -0.076126   0.113600   0.095971  -0.256717   0.168528
   59  H 12  S   -0.362333   0.275559  -0.709672   1.638851  -0.190396
   60  H 13  S    0.232277   0.006898   0.125054  -0.262148   0.055010
   61  H 13  S   -0.629676   0.336492  -0.697674   1.629205  -0.093938
   62  H 14  S    0.173049  -0.022984   0.035203   0.188034   0.172573
   63  H 14  S   -0.194304  -0.118764   0.698579  -1.620393  -0.006043
   64  H 15  S   -0.173978   0.124337  -0.022322   0.196953   0.116158
   65  H 15  S    0.104252  -0.276986   0.688427  -1.934167   0.049960

                     41         42         43         44         45
                    0.6811     0.6961     0.7101     0.7324     0.7568
                     A          A          A          A          A   
    1  C  1  S    0.012164  -0.019322   0.019622   0.006775   0.006607
    2  C  1  S   -0.090385   0.067740  -0.145168   0.009375   0.273476
    3  C  1  S    5.044425  -0.556086  -0.995544   0.792779   1.044098
    4  C  1  X   -0.001525   0.007683  -0.012891  -0.040942   0.114275
    5  C  1  Y    0.087640  -0.104955   0.012667   0.032712   0.224519
    6  C  1  Z    0.014927   0.051533   0.116050   0.524430  -0.272976
    7  C  1  X   -0.565736   3.545467   3.109291  -0.540128   0.705553
    8  C  1  Y    0.890971  -0.092362  -0.137498   0.412544   0.273030
    9  C  1  Z    0.560693   0.157558  -0.173016  -0.524804   0.452597
   10  C  2  S   -0.011266  -0.017205  -0.012848  -0.002420   0.055239
   11  C  2  S   -0.047899   0.037966   0.051317   0.097044  -0.316291
   12  C  2  S   -9.961605  -4.720405  -4.628520  -2.413106   2.502574
   13  C  2  X    0.044568   0.156125   0.094801  -0.047681  -0.147376
   14  C  2  Y   -0.094956   0.014214   0.110875  -0.004174   0.072699
   15  C  2  Z    0.165244  -0.110346   0.370456   0.067685  -0.231433
   16  C  2  X    1.201277   1.636748   1.567176  -0.093968   0.960594
   17  C  2  Y   -2.359120   1.373918   0.642754  -1.054971   1.178987
   18  C  2  Z   -0.233228   0.214251  -0.003179   0.044899  -0.070448
   19  C  3  S    0.017425   0.011212   0.026833   0.032829   0.010734
   20  C  3  S   -0.014153  -0.049504  -0.108683  -0.192121   0.304450
   21  C  3  S   11.165209   6.048151   6.896418   2.537829  -4.001440
   22  C  3  X   -0.051302  -0.117888  -0.098350  -0.093884  -0.203078
   23  C  3  Y   -0.080353  -0.038489  -0.082161  -0.113408  -0.167370
   24  C  3  Z    0.125530   0.011100   0.235744  -0.344221  -0.181467
   25  C  3  X   -0.910801  -2.511808  -2.352195   0.711734  -0.580119
   26  C  3  Y   -3.459190   0.636445   0.556832  -0.704645   1.051417
   27  C  3  Z    0.246647   0.168797  -0.176876   0.319761   0.314379
   28  C  4  S   -0.022657   0.014344   0.028602   0.027330   0.084778
   29  C  4  S   -0.025599   0.020866  -0.058123  -0.084834  -0.353753
   30  C  4  S  -10.992608  -3.977681  -6.147620  -0.207651   7.383468
   31  C  4  X   -0.042418   0.029049  -0.007115   0.070423   0.151064
   32  C  4  Y    0.173107  -0.129694  -0.062868  -0.109566  -0.357793
   33  C  4  Z    0.019436   0.440618  -0.165937  -0.218933  -0.155132
   34  C  4  X    0.153091  -3.529631  -2.845197   0.328693  -1.481713
   35  C  4  Y    3.072260  -0.379248  -0.210895   0.376886  -1.034347
   36  C  4  Z    0.615375  -0.225838   0.460646   0.089766  -0.026220
   37  C  5  S   -0.033553   0.055144   0.085570   0.032793   0.062273
   38  C  5  S    0.658187  -0.506024  -0.861352  -0.185511  -0.259269
   39  C  5  S    3.987979   3.737046   6.489412   0.001812  -5.517840
   40  C  5  X    0.125263   0.061695   0.105136   0.046450   0.258852
   41  C  5  Y    0.072408  -0.112344  -0.061685   0.012996   0.040801
   42  C  5  Z    0.118214   0.439387  -0.214399   0.230944  -0.199148
   43  C  5  X    0.821864   1.312771   1.372521  -0.286709  -1.172308
   44  C  5  Y    2.597519  -2.632372  -1.899149   0.500648  -2.027341
   45  C  5  Z   -0.385431  -0.616888   0.301661  -0.081894   0.015900
   46  H  6  S    0.374696  -0.412368  -0.085852  -0.162867   0.191476
   47  H  6  S   -0.107389   0.172438  -1.076811   0.102674   0.042331
   48  H  7  S    0.460304   0.283038  -0.325207   0.268607   0.167897
   49  H  7  S   -0.569794  -0.898923  -0.454440  -0.379927   0.449855
   50  H  8  S   -0.525125  -0.403492   0.183470   0.341190   0.093281
   51  H  8  S    1.055275   0.763368   0.066945  -0.376712  -1.105338
   52  H  9  S   -0.053509   0.418597   0.029878  -0.166591   0.091209
   53  H  9  S    0.820953  -0.577981   0.484825   0.162179  -0.885620
   54  H 10  S    0.070965   0.013894  -0.248207   0.365104   0.393929
   55  H 10  S   -0.590453  -0.585877  -0.219394  -0.850606   0.045903
   56  H 11  S    0.642599  -0.013383   0.262894  -0.388804   0.424433
   57  H 11  S   -1.096144  -0.489873  -1.013719   0.132719   0.399867
   58  H 12  S   -0.253908   0.013678  -0.597433   0.039121   0.150230
   59  H 12  S    1.094886   0.306742   0.936556   0.242649  -0.665818
   60  H 13  S    0.079433  -0.122635   0.453384   0.163644  -0.171660
   61  H 13  S    0.532188   0.684357  -0.104051   0.127995  -0.218347
   62  H 14  S    0.303089   0.051082   0.215329   0.584980   0.266609
   63  H 14  S   -0.549272   0.113159  -0.164453  -0.768299   0.099590
   64  H 15  S   -0.326457   0.015070   0.002637  -0.401761   0.331078
   65  H 15  S   -0.370881   0.227808   0.418448   0.714269  -0.369742

                     46         47         48         49         50
                    0.7868     0.7876     0.8138     0.8449     0.8568
                     A          A          A          A          A   
    1  C  1  S    0.025796   0.079814   0.170701   0.077983   0.077898
    2  C  1  S   -0.080521  -0.532305  -1.108043  -0.758551  -0.662674
    3  C  1  S    0.979482  -6.176463  15.672101   3.830678   4.820355
    4  C  1  X   -0.006650   0.085728   0.067474  -0.048755   0.051526
    5  C  1  Y    0.166683   0.191978   0.567999   0.132360   0.219215
    6  C  1  Z    0.024927   0.134149   0.011879  -0.194620   0.076151
    7  C  1  X    0.328699   0.945056   1.288624   1.073724  -2.031311
    8  C  1  Y   -0.241297  -1.078275   0.834106  -0.166211   0.175568
    9  C  1  Z   -0.015886  -0.187791   0.254008   0.383474  -0.427325
   10  C  2  S    0.163732   0.133411  -0.085847  -0.031202   0.079490
   11  C  2  S   -0.946769  -1.093065   0.824718   0.170066  -0.594517
   12  C  2  S    0.316020  10.169450 -12.618346  -7.096593   2.664076
   13  C  2  X   -0.419787  -0.175394   0.075546   0.098794  -0.239872
   14  C  2  Y    0.264928   0.140625  -0.109697  -0.007745  -0.011646
   15  C  2  Z    0.107899  -0.061423   0.074786  -0.362230   0.169309
   16  C  2  X    0.511789  -0.031073   1.979676   0.785005   0.009140
   17  C  2  Y   -0.285962   1.304284   0.896383  -0.411233  -0.536096
[...]
   34  C  4  X    0.337022  -0.119670  -0.126347   0.571922   0.423124
   35  C  4  Y   -0.201884   0.008209  -0.100586   0.725737  -0.224006
   36  C  4  Z    0.478726  -0.223114   0.232231  -0.334483  -0.308353
   37  C  5  S   -0.055372   0.038836   0.105858  -0.052683  -0.007766
   38  C  5  S    0.068466  -0.056402  -0.096861   0.077362   0.032105
   39  C  5  S    0.981781  -0.594601  -2.404720   0.813618  -0.148599
   40  C  5  X    0.019012  -0.041795   0.003363   0.058823   0.152149
   41  C  5  Y   -0.060915  -0.064014   0.047549   0.130533  -0.170708
   42  C  5  Z    0.122736   0.102501   0.073913   0.089254  -0.035809
   43  C  5  X    0.100799  -0.121411  -0.261904   0.268213   0.505394
   44  C  5  Y   -0.217254  -0.319486   0.202018   0.520150  -0.712300
   45  C  5  Z    0.389963   0.287000   0.226688   0.333662  -0.132035
   46  H  6  S   -0.040753  -0.029942   0.000254   0.037027   0.085523
   47  H  6  S   -0.784755  -0.268698   0.575071  -0.273480   0.506526
   48  H  7  S    0.032844   0.022282   0.051470   0.057487   0.021841
   49  H  7  S    0.203762   0.592348   1.132250   0.184887   0.147075
   50  H  8  S   -0.053426   0.016603  -0.062993   0.019535   0.035405
   51  H  8  S   -0.575191  -0.144995  -0.928248   0.367407  -0.106109
   52  H  9  S    0.081834  -0.043771  -0.022886  -0.063838   0.082278
   53  H  9  S    0.954749  -0.757237  -0.476189  -0.598867  -0.146204
   54  H 10  S    0.003265   0.109076  -0.007925  -0.095936  -0.000826
   55  H 10  S    0.038678   1.445967  -0.048435  -0.292662   0.017640
   56  H 11  S   -0.002698  -0.049330  -0.003119  -0.012252  -0.002667
   57  H 11  S   -0.024511  -0.211167  -0.006632   0.348667  -0.025098
   58  H 12  S    0.054281   0.013527   0.067618   0.009498  -0.036579
   59  H 12  S    0.585584  -0.182447   1.018715   0.191811   0.104036
   60  H 13  S   -0.083679  -0.037306   0.012539  -0.064174  -0.083457
   61  H 13  S   -0.988279  -0.688199   0.384848  -0.666745   0.151433
   62  H 14  S   -0.028817   0.024156  -0.039410   0.066697  -0.018239
   63  H 14  S   -0.145157   0.605258  -1.067681   0.364092  -0.129927
   64  H 15  S    0.036084  -0.031580   0.003551   0.038232  -0.083214
   65  H 15  S    0.736343  -0.318550  -0.637615  -0.149769  -0.508929

     ---------------------------------------------------------------------
     PROPERTIES FOR THE PBE      DFT FUNCTIONAL (RHF  TYPE) DENSITY MATRIX
     ---------------------------------------------------------------------

          -----------------
          ENERGY COMPONENTS
          -----------------

         WAVEFUNCTION NORMALIZATION =       1.0000000000

                ONE ELECTRON ENERGY =    -627.1305209713
                TWO ELECTRON ENERGY =     246.8504848181
           NUCLEAR REPULSION ENERGY =     184.4911049888
                                      ------------------
                       TOTAL ENERGY =    -195.7889311643

 ELECTRON-ELECTRON POTENTIAL ENERGY =     246.8504848181
  NUCLEUS-ELECTRON POTENTIAL ENERGY =    -820.9473860585
   NUCLEUS-NUCLEUS POTENTIAL ENERGY =     184.4911049888
                                      ------------------
             TOTAL POTENTIAL ENERGY =    -389.6057962516
               TOTAL KINETIC ENERGY =     193.8168650872
                 VIRIAL RATIO (V/T) =       2.0101748941

          ---------------------------------------
          MULLIKEN AND LOWDIN POPULATION ANALYSES
          ---------------------------------------

     ATOMIC MULLIKEN POPULATION IN EACH MOLECULAR ORBITAL

                      1          2          3          4          5

                  2.000000   2.000000   2.000000   2.000000   2.000000

    1             0.494780   0.233275   0.171481   0.421595   0.674497
    2             0.154022   0.702787   0.644025   0.078783   0.415013
    3             0.014137   0.547819   0.009685   1.122133   0.300845
    4             0.535313   0.506476   0.685827   0.080798   0.186189
    5             0.796913   0.005473   0.483720   0.291482   0.417982
    6             0.000968   0.000003   0.000594   0.000329   0.000534
    7             0.000953  -0.000001   0.000664   0.000419   0.000530
    8             0.000659   0.000513   0.001074   0.000121   0.000255
    9             0.000632   0.000575   0.000795   0.000094   0.000286
   10             0.000012   0.000546   0.000013   0.001330   0.000477
   11             0.000009   0.000494   0.000011   0.001610   0.000453
   12             0.000213   0.000728   0.000953   0.000119   0.000611
   13             0.000188   0.000801   0.000718   0.000097   0.000578
   14             0.000605   0.000234   0.000239   0.000593   0.000885
   15             0.000596   0.000276   0.000203   0.000496   0.000866

                      6          7          8          9         10

                  2.000000   2.000000   2.000000   2.000000   2.000000

    1             0.335298   0.237083   0.476043   0.130856   0.433990
    2             0.382599   0.556567   0.115147   0.333767   0.252416
    3             0.408064   0.089332   0.553336   0.490716   0.108715
    4             0.384304   0.519232   0.150052   0.352254   0.235552
    5             0.337453   0.303394   0.408097   0.140793   0.425611
    6             0.015221   0.025856   0.040079   0.004085   0.097984
    7             0.014413   0.025847   0.035691   0.021510   0.092116
    8             0.014322   0.043638   0.007469   0.092585   0.034335
    9             0.016558   0.054937   0.007816   0.054421   0.039717
   10             0.017062   0.000276   0.060718   0.090326   0.000076
   11             0.014113   0.000199   0.046530   0.132280   0.000074
   12             0.014391   0.048240   0.003395   0.086929   0.039231
   13             0.016537   0.059644   0.003179   0.049649   0.044834
   14             0.014485   0.018108   0.044023   0.017475   0.095177
   15             0.015179   0.017647   0.048426   0.002354   0.100171

                     11         12         13         14         15

                  2.000000   2.000000   2.000000   2.000000   2.000000

    1             0.283081   0.283562   0.395184   0.129110   0.141949
    2             0.300509   0.300536   0.072945   0.457952   0.478147
    3             0.260035   0.354721   0.429047   0.101204   0.111449
    4             0.299720   0.301889   0.104258   0.427013   0.487305
    5             0.282038   0.286096   0.319527   0.204440   0.257783
    6             0.053411   0.065028   0.069335   0.053065   0.061628
    7             0.053907   0.023275   0.106534   0.074030   0.009882
    8             0.040719   0.018955   0.027100   0.165187   0.008612
    9             0.084382   0.072131   0.007715   0.057418   0.198526
   10             0.063705   0.107157   0.045804   0.000346   0.005855
   11             0.046206   0.008809   0.185939   0.001280   0.000016
   12             0.040860   0.019572   0.009241   0.183025   0.008804
   13             0.083890   0.070921   0.002448   0.065260   0.189915
   14             0.054657   0.024532   0.133527   0.045352   0.006299
   15             0.052880   0.062815   0.091396   0.035317   0.033830

                     16         17         18         19         20

                  2.000000   2.000000   2.000000   2.000000   2.000000

    1             0.340852   0.665709   0.192522   0.033963   0.358768
    2             0.182874   0.192345   0.411856   0.259728   0.155053
    3             0.597525   0.026818   0.491821   0.401163   0.027493
    4             0.169208   0.164484   0.440137   0.276550   0.140509
    5             0.205874   0.654766   0.219001   0.044553   0.350446
    6             0.048905   0.022156   0.075918   0.019674   0.124119
    7             0.013369   0.043647   0.009489   0.027891   0.225573
    8             0.000371   0.001569   0.003043   0.215768   0.102937
    9             0.005077   0.076160   0.032581   0.050758   0.018237
   10             0.329671   0.011500   0.000269   0.043885   0.000012
   11             0.000574   0.003773   0.000056   0.335628   0.000166
   12             0.001900   0.002724   0.001947   0.201515   0.114905
   13             0.001209   0.077661   0.036897   0.052590   0.021791
   14             0.022436   0.042776   0.011970   0.020968   0.225428
   15             0.080155   0.013913   0.072495   0.015365   0.134563

               ----- POPULATIONS IN EACH AO -----
                             MULLIKEN      LOWDIN
              1  C  1  S      1.97964     1.95787
              2  C  1  S      0.81175     0.64015
              3  C  1  S      0.51519     0.39913
              4  C  1  X      0.46750     0.45572
              5  C  1  Y      0.49310     0.48259
              6  C  1  Z      0.50736     0.49045
              7  C  1  X      0.46139     0.56610
              8  C  1  Y      0.55284     0.59630
              9  C  1  Z      0.64484     0.63610
             10  C  2  S      1.97961     1.95791
             11  C  2  S      0.80937     0.63978
             12  C  2  S      0.53079     0.39822
             13  C  2  X      0.49133     0.48064
             14  C  2  Y      0.47800     0.46750
             15  C  2  Z      0.50318     0.48640
             16  C  2  X      0.55214     0.59238
             17  C  2  Y      0.47084     0.56756
             18  C  2  Z      0.63181     0.63109
             19  C  3  S      1.97965     1.95792
             20  C  3  S      0.80764     0.63951
             21  C  3  S      0.53910     0.39827
             22  C  3  X      0.48575     0.47534
             23  C  3  Y      0.48735     0.47692
             24  C  3  Z      0.50162     0.48501
             25  C  3  X      0.50784     0.57917
             26  C  3  Y      0.51472     0.58105
             27  C  3  Z      0.62239     0.62804
             28  C  4  S      1.97961     1.95791
             29  C  4  S      0.80912     0.63983
             30  C  4  S      0.53201     0.39837
             31  C  4  X      0.47918     0.46882
             32  C  4  Y      0.49031     0.47950
             33  C  4  Z      0.50289     0.48614
             34  C  4  X      0.47645     0.56915
             35  C  4  Y      0.54725     0.59109
             36  C  4  Z      0.63024     0.63056
             37  C  5  S      1.97963     1.95787
             38  C  5  S      0.81154     0.64017
             39  C  5  S      0.51643     0.39916
             40  C  5  X      0.49244     0.48190
             41  C  5  Y      0.46847     0.45680
             42  C  5  Z      0.50703     0.49014
             43  C  5  X      0.55295     0.59600
             44  C  5  Y      0.46273     0.56641
             45  C  5  Z      0.64422     0.63594
             46  H  6  S      0.57690     0.56182
             47  H  6  S      0.20200     0.32560
             48  H  7  S      0.57719     0.56346
             49  H  7  S      0.20255     0.32526
             50  H  8  S      0.57594     0.56291
             51  H  8  S      0.20329     0.32774
             52  H  9  S      0.57641     0.56027
             53  H  9  S      0.20241     0.32736
             54  H 10  S      0.57629     0.55967
             55  H 10  S      0.20275     0.32806
             56  H 11  S      0.57493     0.56178
             57  H 11  S      0.20329     0.32903
             58  H 12  S      0.57605     0.56307
             59  H 12  S      0.20325     0.32751
             60  H 13  S      0.57631     0.56028
             61  H 13  S      0.20250     0.32734
             62  H 14  S      0.57722     0.56335
             63  H 14  S      0.20255     0.32519
             64  H 15  S      0.57713     0.56211
             65  H 15  S      0.20181     0.32533

          ----- MULLIKEN ATOMIC OVERLAP POPULATIONS -----
          (OFF-DIAGONAL ELEMENTS NEED TO BE MULTIPLIED BY 2)

             1           2           3           4           5

    1    5.3778122
    2    0.3039695   5.4260071
    3   -0.1187569   0.3033974   5.4396143
    4   -0.0837323  -0.1462448   0.3036916   5.4277477
    5    0.3038709  -0.0822203  -0.1215886   0.3040143   5.3816206
    6   -0.0312217   0.0043096   0.0072537  -0.0338299   0.3849740
    7   -0.0367570   0.0039079   0.0032489  -0.0371256   0.3863230
    8    0.0006080   0.0013007  -0.0410525   0.3845789  -0.0379842
    9    0.0051506   0.0083002  -0.0303894   0.3787734  -0.0278495
   10    0.0068669  -0.0285376   0.3775059  -0.0286332   0.0069939
   11   -0.0003601  -0.0400223   0.3842955  -0.0403164  -0.0003028
   12   -0.0378699   0.3848110  -0.0410650   0.0013903   0.0007758
   13   -0.0279163   0.3789989  -0.0305623   0.0083306   0.0050654
   14    0.3864791  -0.0366573   0.0033458   0.0041542  -0.0366134
   15    0.3854572  -0.0342497   0.0071190   0.0042731  -0.0316383

             6           7           8           9          10

    6    0.4844537
    7   -0.0275875   0.4932343
    8   -0.0073834   0.0050354   0.4980689
    9    0.0021352  -0.0068670  -0.0268520   0.4821218
   10   -0.0002401  -0.0002641  -0.0058512   0.0011299   0.4822927
   11   -0.0001926   0.0017363   0.0057674  -0.0058775  -0.0269609
   12   -0.0000104  -0.0000836   0.0033551  -0.0003159  -0.0059205
   13   -0.0001493  -0.0002527  -0.0003141  -0.0002366   0.0011577
   14    0.0036507  -0.0085663  -0.0000872  -0.0002531  -0.0002555
   15   -0.0072693   0.0037567   0.0000409  -0.0001541  -0.0002422

            11          12          13          14          15

   11    0.4992597
   12    0.0057526   0.4979568
   13   -0.0059518  -0.0269090   0.4822279
   14    0.0015730   0.0049552  -0.0069146   0.4925159
   15   -0.0001820  -0.0075219   0.0022325  -0.0275565   0.4848790

          TOTAL MULLIKEN AND LOWDIN ATOMIC POPULATIONS
       ATOM         MULL.POP.    CHARGE          LOW.POP.     CHARGE
    1 C             6.433600   -0.433600         6.224406   -0.224406
    2 C             6.447070   -0.447070         6.221459   -0.221459
    3 C             6.446057   -0.446057         6.221239   -0.221239
    4 C             6.447072   -0.447072         6.221374   -0.221374
    5 C             6.435441   -0.435441         6.224400   -0.224400
    6 H             0.778893    0.221107         0.887412    0.112588
    7 H             0.779739    0.220261         0.888717    0.111283
    8 H             0.779231    0.220769         0.890651    0.109349
    9 H             0.778816    0.221184         0.887628    0.112372
   10 H             0.779042    0.220958         0.887729    0.112271
   11 H             0.778218    0.221782         0.890816    0.109184
   12 H             0.779301    0.220699         0.890581    0.109419
   13 H             0.778806    0.221194         0.887618    0.112382
   14 H             0.779770    0.220230         0.888535    0.111465
   15 H             0.778944    0.221056         0.887434    0.112566

          MULLIKEN SPHERICAL HARMONIC POPULATIONS
       ATOM           S       P       D      F      G      H      I    TOTAL
    1 C             3.31    3.13    0.00   0.00   0.00   0.00   0.00    6.43
    2 C             3.32    3.13    0.00   0.00   0.00   0.00   0.00    6.45
    3 C             3.33    3.12    0.00   0.00   0.00   0.00   0.00    6.45
    4 C             3.32    3.13    0.00   0.00   0.00   0.00   0.00    6.45
    5 C             3.31    3.13    0.00   0.00   0.00   0.00   0.00    6.44
    6 H             0.78    0.00    0.00   0.00   0.00   0.00   0.00    0.78
    7 H             0.78    0.00    0.00   0.00   0.00   0.00   0.00    0.78
    8 H             0.78    0.00    0.00   0.00   0.00   0.00   0.00    0.78
    9 H             0.78    0.00    0.00   0.00   0.00   0.00   0.00    0.78
   10 H             0.78    0.00    0.00   0.00   0.00   0.00   0.00    0.78
   11 H             0.78    0.00    0.00   0.00   0.00   0.00   0.00    0.78
   12 H             0.78    0.00    0.00   0.00   0.00   0.00   0.00    0.78
   13 H             0.78    0.00    0.00   0.00   0.00   0.00   0.00    0.78
   14 H             0.78    0.00    0.00   0.00   0.00   0.00   0.00    0.78
   15 H             0.78    0.00    0.00   0.00   0.00   0.00   0.00    0.78

          -------------------------------
          BOND ORDER AND VALENCE ANALYSIS     BOND ORDER THRESHOLD=0.050
          -------------------------------

                   BOND                       BOND                       BOND
  ATOM PAIR DIST  ORDER      ATOM PAIR DIST  ORDER      ATOM PAIR DIST  ORDER
    1   2  1.572  0.975        1   5  1.584  0.970        1  14  1.108  0.930
    1  15  1.106  0.932        2   3  1.561  0.975        2  12  1.110  0.924
    2  13  1.106  0.927        3   4  1.561  0.974        3  10  1.106  0.925
    3  11  1.110  0.921        4   5  1.571  0.976        4   8  1.110  0.924
    4   9  1.106  0.927        5   6  1.106  0.931        5   7  1.108  0.930

                       TOTAL       BONDED        FREE
      ATOM            VALENCE     VALENCE     VALENCE
    1 C                 3.722       3.722       0.000
    2 C                 3.709       3.709       0.000
    3 C                 3.698       3.698       0.000
    4 C                 3.708       3.708       0.000
    5 C                 3.721       3.721       0.000
    6 H                 0.911       0.911      -0.000
    7 H                 0.909       0.909      -0.000
    8 H                 0.908       0.908      -0.000
    9 H                 0.912       0.912       0.000
   10 H                 0.912       0.912       0.000
   11 H                 0.906       0.906       0.000
   12 H                 0.908       0.908      -0.000
   13 H                 0.912       0.912       0.000
   14 H                 0.909       0.909      -0.000
   15 H                 0.911       0.911      -0.000

          ---------------------
          ELECTROSTATIC MOMENTS
          ---------------------

 POINT   1           X           Y           Z (BOHR)    CHARGE
                 0.010279   -0.011666    0.011579        0.00 (A.U.)
         DX          DY          DZ         /D/  (DEBYE)
     0.007495    0.008891   -0.002096    0.011816
 ...... END OF PROPERTY EVALUATION ......
 STEP CPU TIME =     0.02 TOTAL CPU TIME =        530.4 (      8.8 MIN)
 TOTAL WALL CLOCK TIME=        532.9 SECONDS, CPU UTILIZATION IS    99.54%
  $VIB   
          IVIB=   0 IATOM=   0 ICOORD=   0 E=     -195.7889311643
 -5.238502398E-05 4.492093580E-05 3.621220184E-05-1.563790466E-05-2.517885111E-05
  8.095498060E-05 5.552690395E-06 4.191118302E-05 1.841202069E-05-7.475361100E-06
 -4.566070753E-05 3.728869098E-05 6.682544485E-06-2.103348107E-05 4.755631756E-05
  1.864241588E-05 2.549746153E-05-9.010525613E-06 2.346073686E-05 5.373479295E-06
  3.571120590E-06 1.798476881E-05-2.877737055E-05-7.175934929E-05-1.238844880E-06
  3.350191396E-06 5.885518749E-06 1.589119279E-06 2.795129023E-06 1.311087121E-05
  8.173213672E-06 3.109484661E-05-2.352334136E-05-5.658982101E-05 3.643628229E-05
 -7.583886795E-05 6.370949822E-06-3.204445729E-05-2.066931494E-05 1.396923443E-05
 -4.801294234E-05-2.734842963E-05 3.090128200E-05 9.328300916E-06-1.484189342E-05
  7.494766262E-03 8.890515058E-03-2.096085662E-03
 ......END OF GEOMETRY SEARCH......
 STEP CPU TIME =     0.00 TOTAL CPU TIME =        530.4 (      8.8 MIN)
 TOTAL WALL CLOCK TIME=        532.9 SECONDS, CPU UTILIZATION IS    99.54%
                580000  WORDS OF DYNAMIC MEMORY USED
 EXECUTION OF GAMESS TERMINATED NORMALLY Thu Oct  3 23:36:01 2019
 DDI: 263640 bytes (0.3 MB / 0 MWords) used by master data server.

 ----------------------------------------
 CPU timing information for all processes
 ========================================
 0: 527.222 + 3.240 = 530.463
 ----------------------------------------
 ddikick.x: exited gracefully.
----- accounting info -----
Files used on the master node d12chas540.crc.nd.edu were:
-rw-r--r-- 1 wschnei1 campus 866477 Oct  3 23:36 /scratch365/wschnei1/opt-cart.F07
Thu Oct  3 23:36:05 EDT 2019
0.410u 0.324s 8:56.64 0.1%	0+0k 0+1744io 0pf+0w
