----- GAMESS execution script 'rungms' -----
This job is running on host d12chas540.crc.nd.edu
under operating system Linux at Thu Oct 3 23:50:48 EDT 2019
SGE has assigned the following compute nodes to this run:
Available scratch disk space (Kbyte units) at beginning of the job is
Filesystem      1K-blocks     Used  Available Use% Mounted on
/dev/sda2      1949705068 49609408 1900095660   3% /
GAMESS temporary binary files will be written to /tmp/471398.1.debug
GAMESS supplementary output files will be written to /afs/crc.nd.edu/user/w/wschnei1/scr
Copying input file opt-dlc.inp to your run's scratch directory...
reading your own /afs/crc.nd.edu/user/w/wschnei1/.gmsrc

 Distributed Data Interface kickoff program.
 Initiating 1 compute processes on 1 nodes to run the following command:
 /afs/crc.nd.edu/x86_64_linux/g/gamess/nov-2017/gamess/gamess.00.x opt-dlc 

          ******************************************************
          *         GAMESS VERSION = 11 NOV 2017 (R3)         *
          *             FROM IOWA STATE UNIVERSITY             *
          * M.W.SCHMIDT, K.K.BALDRIDGE, J.A.BOATZ, S.T.ELBERT, *
          *   M.S.GORDON, J.H.JENSEN, S.KOSEKI, N.MATSUNAGA,   *
          *          K.A.NGUYEN, S.J.SU, T.L.WINDUS,           *
          *       TOGETHER WITH M.DUPUIS, J.A.MONTGOMERY       *
          *         J.COMPUT.CHEM.  14, 1347-1363(1993)        *
          **************** 64 BIT INTEL VERSION ****************

  SINCE 1993, STUDENTS AND POSTDOCS WORKING AT IOWA STATE UNIVERSITY
  AND ALSO IN THEIR VARIOUS JOBS AFTER LEAVING ISU HAVE MADE IMPORTANT
  CONTRIBUTIONS TO THE CODE:
     IVANA ADAMOVIC, CHRISTINE AIKENS, YURI ALEXEEV, POOJA ARORA,
     ANDREY ASADCHEV, ROB BELL, PRADIPTA BANDYOPADHYAY, JONATHAN BENTZ,
     BRETT BODE, KURT BRORSEN, CALEB CARLIN, GALINA CHABAN, WEI CHEN,
     CHEOL HO CHOI, PAUL DAY, ALBERT DEFUSCO, NUWAN DESILVA, TIM DUDLEY,
     DMITRI FEDOROV, ALEX FINDLATER, GRAHAM FLETCHER, MARK FREITAG,
     KURT GLAESEMANN, ANASTASIA GUININA,
     DAN KEMP, GRANT MERRILL, NORIYUKI MINEZAWA, JONATHAN MULLIN,
     TAKESHI NAGATA, SEAN NEDD, HEATHER NETZLOFF, BOSILJKA NJEGIC, RYAN OLSON,
     MIKE PAK, BUU PHAM,
     SPENCER PRUITT, LUKE ROSKOP, JIM SHOEMAKER, LYUDMILA SLIPCHENKO,
     TONY SMITH, SAROM SOK LEANG, JIE SONG, TETSUYA TAKETSUGU, SIMON WEBB,
     PENG XU, SOOHAENG YOO, FEDERICO ZAHARIEV

  ADDITIONAL CODE HAS BEEN PROVIDED BY COLLABORATORS IN OTHER GROUPS:
     IOWA STATE UNIVERSITY:
          JOE IVANIC, AARON WEST, LAIMUTIS BYTAUTAS, KLAUS RUEDENBERG
     UNIVERSITY OF TOKYO: KIMIHIKO HIRAO, TAKAHITO NAKAJIMA,
          TAKAO TSUNEDA, MUNEAKI KAMIYA, SUSUMU YANAGISAWA,
          KIYOSHI YAGI, MAHITO CHIBA, SEIKEN TOKURA, NAOAKI KAWAKAMI
     UNIVERSITY OF AARHUS: FRANK JENSEN
     UNIVERSITY OF IOWA: VISVALDAS KAIRYS, HUI LI
     NATIONAL INST. OF STANDARDS AND TECHNOLOGY: WALT STEVENS, DAVID GARMER
     UNIVERSITY OF PISA: BENEDETTA MENNUCCI, JACOPO TOMASI
     UNIVERSITY OF MEMPHIS: HENRY KURTZ, PRAKASHAN KORAMBATH
     UNIVERSITY OF ALBERTA: TOBY ZENG, MARIUSZ KLOBUKOWSKI
     UNIVERSITY OF NEW ENGLAND: MARK SPACKMAN
     MIE UNIVERSITY: HIROAKI UMEDA
     NAT. INST. OF ADVANCED INDUSTRIAL SCIENCE AND TECHNOLOGY: KAZUO KITAURA
     MICHIGAN STATE UNIVERSITY:
          KAROL KOWALSKI, MARTA WLOCH, JEFFREY GOUR, JESSE LUTZ,
          WEI LI, PIOTR PIECUCH
     UNIVERSITY OF SILESIA: MONIKA MUSIAL, STANISLAW KUCHARSKI
     FACULTES UNIVERSITAIRES NOTRE-DAME DE LA PAIX:
          OLIVIER QUINET, BENOIT CHAMPAGNE
     UNIVERSITY OF CALIFORNIA - SANTA BARBARA: BERNARD KIRTMAN
     INSTITUTE FOR MOLECULAR SCIENCE:
          KAZUYA ISHIMURA, MICHIO KATOUDA, AND SHIGERU NAGASE
     UNIVERSITY OF NOTRE DAME: ANNA POMOGAEVA, DAN CHIPMAN
     KYUSHU UNIVERSITY:
          HARUYUKI NAKANO,
          FENG LONG GU, JACEK KORCHOWIEC, MARCIN MAKOWSKI, AND YURIKO AOKI,
          HIROTOSHI MORI AND EISAKU MIYOSHI
     PENNSYLVANIA STATE UNIVERSITY:
          TZVETELIN IORDANOV, CHET SWALINA, JONATHAN SKONE,
          SHARON HAMMES-SCHIFFER
     WASEDA UNIVERSITY:
          MASATO KOBAYASHI, TOMOKO AKAMA, TSUGUKI TOUMA,
          TAKESHI YOSHIKAWA, YASUHIRO IKABATA, JUNJI SEINO,
          YUYA NAKAJIMA, HIROMI NAKAI
     NANJING UNIVERSITY: SHUHUA LI
     UNIVERSITY OF NEBRASKA:
          PEIFENG SU, DEJUN SI, NANDUN THELLAMUREGE, YALI WANG, HUI LI
     UNIVERSITY OF ZURICH: ROBERTO PEVERATI, KIM BALDRIDGE
     N. COPERNICUS UNIVERSITY AND JACKSON STATE UNIVERSITY:
          MARIA BARYSZ
     UNIVERSITY OF COPENHAGEN: Jimmy Kromann, CASPER STEINMANN
     TOKYO INSTITUTE OF TECHNOLOGY: HIROYA NAKATA
     NAGOYA UNIVERSITY: YOSHIO NISHIMOTO, STEPHAN IRLE
     MOSCOW STATE UNIVERSITY: VLADIMIR MIRONOV

 EXECUTION OF GAMESS BEGUN Thu Oct  3 23:50:48 2019

            ECHO OF THE FIRST FEW INPUT CARDS -
 INPUT CARD> $CONTRL SCFTYP=RHF DFTTYP=PBE RUNTYP=OPTIMIZE COORD=CART                       
 INPUT CARD>  NZVAR=39 ISPHER=1 $END                                                        
 INPUT CARD> $BASIS GBASIS=PCseg-0 $END                                                     
 INPUT CARD> $ZMAT DLC=.TRUE. AUTO=.TRUE. $END                                              
 INPUT CARD> $DATA                                                                          
 INPUT CARD>C5H10                                                                           
 INPUT CARD>C1                                                                              
 INPUT CARD> C           6.0  -0.1472815662  -1.1083439282  -0.0102112234                   
 INPUT CARD> C           6.0   1.0587973091  -0.4903704140   0.0247606262                   
 INPUT CARD> C           6.0   0.8099446581   0.8242131856  -0.0381902604                   
 INPUT CARD> C           6.0  -0.5589329493   0.9662874251   0.0404237700                   
 INPUT CARD> C           6.0  -1.1481453918  -0.1960808903  -0.0210642161                   
 INPUT CARD> H           1.0  -1.4970810069  -0.3965615859   0.9456390416                   
 INPUT CARD> H           1.0  -1.6003228574  -0.1804472703  -0.9760211999                   
 INPUT CARD> H           1.0  -0.7619507375   1.3475732621   0.9879214360                   
 INPUT CARD> H           1.0  -0.8930487149   1.3399727868  -0.8510752551                   
 INPUT CARD> H           1.0   1.1280657090   1.2249072831   0.8664068964                   
 INPUT CARD> H           1.0   1.1530382400   1.1209273296  -0.9857174691                   
 INPUT CARD> H           1.0   1.4614327091  -0.7302502418   0.9595907609                   
 INPUT CARD> H           1.0   1.5209480250  -0.7362379168  -0.8732379602                   
 INPUT CARD> H           1.0  -0.2024923345  -1.6069820475  -0.9114922527                   
 INPUT CARD> H           1.0  -0.2860493851  -1.5207239795   0.9320052421                   
 INPUT CARD> $END                                                                           
 INPUT CARD>                                                                                
    1000000 WORDS OF MEMORY AVAILABLE


                    * * * WARNING * * *
 OLD KEYWORD COORD=CART SELECTED, AUTOMATICALLY CHANGED TO COORD=PRINAXIS.
 YOUR MOLECULE'S COORDINATES WILL BE CHANGED TO PRINCIPAL AXES BY
   A) TRANSLATION TO THE CENTER OF MASS, THEN
   B) ROTATION TO HAVE A DIAGONAL MOMENT OF INERTIA TENSOR.

 HOWEVER, NOTHING ELSE IN YOUR INPUT WILL BE ROTATED IN THE SAME WAY,
 SO IF YOU HAVE A $VEC, $VIB, $GRAD, $HESS, EFP PARTICLE COORDINATES,
 OR ANYTHING ELSE THAT DEPENDS ON THE INITIAL ORIENTATION, THAT DATA
 WILL NOT BE USED CORRECTLY IN THIS RUN.

 THE PURPOSE OF COORD=PRINAXIS IS TO BE USED ONCE, ONLY AT THE VERY
 BEGINNING OF A SERIES OF COMPUTATIONS, PERHAPS TO FIND THE SYMMETRY
 UNIQUE ATOMS FROM AN ARBITRARY INITIAL ORIENTATION.

 AFTER THE FIRST RUN, YOU SHOULD USE ONLY COORD=UNIQUE, TO ENSURE THAT
 THE COORDINATES WHICH YOU READ IN ARE THE COORDINATES THAT ARE USED.


     BASIS OPTIONS
     -------------
     GBASIS=PCSEG-0      IGAUSS=       0      POLAR=NONE    
     NDFUNC=       0     NFFUNC=       0     DIFFSP=       F
     NPFUNC=       0      DIFFS=       F     BASNAM=        


     RUN TITLE
     ---------
 C5H10                                                                           

 THE POINT GROUP OF THE MOLECULE IS C1      
 THE ORDER OF THE PRINCIPAL AXIS IS     0

 THE MOMENTS OF INERTIA ARE (AMU-ANGSTROM**2)
 IXX=    58.838   IYY=    63.386   IZZ=   104.682

 ATOM      ATOMIC                      COORDINATES (BOHR)
           CHARGE         X                   Y                   Z
 C           6.0     0.2219294088       -2.0968061624        0.0172215333
 C           6.0    -2.0218038798       -0.8622935094       -0.0485745060
 C           6.0    -1.4786886542        1.6067876023        0.0748227365
 C           6.0     1.1150117832        1.7992228287       -0.0714357793
 C           6.0     2.1632122939       -0.4293553798        0.0419336766
 H           1.0     2.8125632959       -0.8244857178       -1.7850194963
 H           1.0     3.0168202439       -0.4279252860        1.8471999988
 H           1.0     1.5210810205        2.5110541480       -1.8604792665
 H           1.0     1.7656271514        2.4837431469        1.6148690967
 H           1.0    -2.0559839135        2.3841460529       -1.6337971607
 H           1.0    -2.1116221417        2.1834276230        1.8658465465
 H           1.0    -2.7943383478       -1.2901218829       -1.8164388222
 H           1.0    -2.9097441497       -1.3037607842        1.6470002164
 H           1.0     0.2971667661       -3.0445316008        1.7189127188
 H           1.0     0.4624670622       -2.8805746015       -1.7644043836

          INTERNUCLEAR DISTANCES (ANGS.)
          ------------------------------

                1 C          2 C          3 C          4 C          5 C     

   1 C       0.0000000    1.3556329 *  2.1568129 *  2.1156833 *  1.3542784 *
   2 C       1.3556329 *  0.0000000    1.3394105 *  2.1769586 *  2.2269491 *
   3 C       2.1568129 *  1.3394105 *  0.0000000    1.3784742 *  2.2080330 *
   4 C       2.1156833 *  2.1769586 *  1.3784742 *  0.0000000    1.3046272 *
   5 C       1.3542784 *  2.2269491 *  2.2080330 *  1.3046272 *  0.0000000  
   6 H       1.8006228 *  2.7183324 *  2.7893688 *  1.8859729 *  1.0471217 *
   7 H       1.9761351 *  2.8580652 *  2.7745737 *  1.8527422 *  1.0567174 *
   8 H       2.7213262 *  2.7605867 *  1.9487601 *  1.0413198 *  1.8841620 *
   9 H       2.6939702 *  2.8154836 *  1.9562659 *  1.0227632 *  1.7644981 *
  10 H       2.7998270 *  1.9118954 *  1.0392559 *  1.8960741 *  2.8262960 *
  11 H       2.7590024 *  1.9042657 *  1.0505048 *  2.0019302 *  2.8214380 *
  12 H       1.9160982 *  1.0457366 *  1.9586629 *  2.7937404 *  2.8384712 *
  13 H       1.9147501 *  1.0394400 *  1.9073117 *  2.8388863 *  2.8534241 *
  14 H       1.0315017 *  1.9272370 *  2.7745982 *  2.7667508 *  1.9177497 *
  15 H       1.0378274 *  1.9218049 *  2.7642743 *  2.6560513 *  1.8455975 *

                6 H          7 H          8 H          9 H         10 H     

   1 C       1.8006228 *  1.9761351 *  2.7213262 *  2.6939702 *  2.7998270 *
   2 C       2.7183324 *  2.8580652 *  2.7605867 *  2.8154836 *  1.9118954 *
   3 C       2.7893688 *  2.7745737 *  1.9487601 *  1.9562659 *  1.0392559 *
   4 C       1.8859729 *  1.8527422 *  1.0413198 *  1.0227632 *  1.8960741 *
   5 C       1.0471217 *  1.0567174 *  1.8841620 *  1.7644981 *  2.8262960 *
   6 H       0.0000000    1.9365284 *  1.8932012 *  2.5707176 *  3.0865570  
   7 H       1.9365284 *  0.0000000    2.6257923 *  1.6815247 *  3.5796183  
   8 H       1.8932012 *  2.6257923 *  0.0000000    1.8436793 *  1.8978870 *
   9 H       2.5707176 *  1.6815247 *  1.8436793 *  0.0000000    2.6547860 *
  10 H       3.0865570    3.5796183    1.8978870 *  2.6547860 *  0.0000000  
  11 H       3.6133146    3.0454338    2.7593118 *  2.0621788 *  1.8552089 *
  12 H       2.9773052 *  3.6637718    3.0432856    3.6204858    1.9855623 *
  13 H       3.5400837    3.1720340    3.6080202    3.1841046    2.6508133 *
  14 H       2.5671023 *  1.9982732 *  3.5567068    3.0273852    3.5987369  
  15 H       1.6524299 *  2.6766063 *  2.9080471 *  3.4251146    3.0890963  

               11 H         12 H         13 H         14 H         15 H     

   1 C       2.7590024 *  1.9160982 *  1.9147501 *  1.0315017 *  1.0378274 *
   2 C       1.9042657 *  1.0457366 *  1.0394400 *  1.9272370 *  1.9218049 *
   3 C       1.0505048 *  1.9586629 *  1.9073117 *  2.7745982 *  2.7642743 *
   4 C       2.0019302 *  2.7937404 *  2.8388863 *  2.7667508 *  2.6560513 *
   5 C       2.8214380 *  2.8384712 *  2.8534241 *  1.9177497 *  1.8455975 *
   6 H       3.6133146    2.9773052 *  3.5400837    2.5671023 *  1.6524299 *
   7 H       3.0454338    3.6637718    3.1720340    1.9982732 *  2.6766063 *
   8 H       2.7593118 *  3.0432856    3.6080202    3.5567068    2.9080471 *
   9 H       2.0621788 *  3.6204858    3.1841046    3.0273852    3.4251146  
  10 H       1.8552089 *  1.9855623 *  2.6508133 *  3.5987369    3.0890963  
  11 H       0.0000000    2.7029964 *  1.8965948 *  3.0470415    3.5674858  
  12 H       2.7029964 *  0.0000000    1.8338045 *  2.6529713 *  1.9181510 *
  13 H       1.8965948 *  1.8338045 *  0.0000000    1.9312963 *  2.6719957 *
  14 H       3.0470415    2.6529713 *  1.9312963 *  0.0000000    1.8474050 *
  15 H       3.5674858    1.9181510 *  2.6719957 *  1.8474050 *  0.0000000  

  * ... LESS THAN  3.000


     ATOMIC BASIS SET
     ----------------
 THE CONTRACTED PRIMITIVE FUNCTIONS HAVE BEEN UNNORMALIZED
 THE CONTRACTED BASIS FUNCTIONS ARE NOW NORMALIZED TO UNITY

  SHELL TYPE  PRIMITIVE        EXPONENT          CONTRACTION COEFFICIENT(S)

 C         

      1   S       1           471.5250000    0.018365741272
      1   S       2            71.1900000    0.127245821015
      1   S       3            15.8860000    0.440412776421
      1   S       4             4.1646900    0.553280001111

      2   S       5             0.4425810    1.000000000000

      3   S       6             0.1428360    1.000000000000

      4   P       7             4.4121100    0.213746653399
      4   P       8             0.8798600    0.879956252208

      5   P       9             0.1929920    1.000000000000

 C         

      6   S      10           471.5250000    0.018365741272
      6   S      11            71.1900000    0.127245821015
      6   S      12            15.8860000    0.440412776421
      6   S      13             4.1646900    0.553280001111

      7   S      14             0.4425810    1.000000000000

      8   S      15             0.1428360    1.000000000000

      9   P      16             4.4121100    0.213746653399
      9   P      17             0.8798600    0.879956252208

     10   P      18             0.1929920    1.000000000000

 C         

     11   S      19           471.5250000    0.018365741272
     11   S      20            71.1900000    0.127245821015
     11   S      21            15.8860000    0.440412776421
     11   S      22             4.1646900    0.553280001111

     12   S      23             0.4425810    1.000000000000

     13   S      24             0.1428360    1.000000000000

     14   P      25             4.4121100    0.213746653399
     14   P      26             0.8798600    0.879956252208

     15   P      27             0.1929920    1.000000000000

 C         

     16   S      28           471.5250000    0.018365741272
     16   S      29            71.1900000    0.127245821015
     16   S      30            15.8860000    0.440412776421
     16   S      31             4.1646900    0.553280001111

     17   S      32             0.4425810    1.000000000000

     18   S      33             0.1428360    1.000000000000

     19   P      34             4.4121100    0.213746653399
     19   P      35             0.8798600    0.879956252208

     20   P      36             0.1929920    1.000000000000

 C         

     21   S      37           471.5250000    0.018365741272
     21   S      38            71.1900000    0.127245821015
     21   S      39            15.8860000    0.440412776421
     21   S      40             4.1646900    0.553280001111

     22   S      41             0.4425810    1.000000000000

     23   S      42             0.1428360    1.000000000000

     24   P      43             4.4121100    0.213746653399
     24   P      44             0.8798600    0.879956252208

     25   P      45             0.1929920    1.000000000000

 H         

     26   S      46             4.3447300    0.167654352461
     26   S      47             0.6604870    0.896889788192

     27   S      48             0.1366870    1.000000000000

 H         

     28   S      49             4.3447300    0.167654352461
     28   S      50             0.6604870    0.896889788192

     29   S      51             0.1366870    1.000000000000

 H         

     30   S      52             4.3447300    0.167654352461
     30   S      53             0.6604870    0.896889788192

     31   S      54             0.1366870    1.000000000000

 H         

     32   S      55             4.3447300    0.167654352461
     32   S      56             0.6604870    0.896889788192

     33   S      57             0.1366870    1.000000000000

 H         

     34   S      58             4.3447300    0.167654352461
     34   S      59             0.6604870    0.896889788192

     35   S      60             0.1366870    1.000000000000

 H         

     36   S      61             4.3447300    0.167654352461
     36   S      62             0.6604870    0.896889788192

     37   S      63             0.1366870    1.000000000000

 H         

     38   S      64             4.3447300    0.167654352461
     38   S      65             0.6604870    0.896889788192

     39   S      66             0.1366870    1.000000000000

 H         

     40   S      67             4.3447300    0.167654352461
     40   S      68             0.6604870    0.896889788192

     41   S      69             0.1366870    1.000000000000

 H         

     42   S      70             4.3447300    0.167654352461
     42   S      71             0.6604870    0.896889788192

     43   S      72             0.1366870    1.000000000000

 H         

     44   S      73             4.3447300    0.167654352461
     44   S      74             0.6604870    0.896889788192

     45   S      75             0.1366870    1.000000000000

 TOTAL NUMBER OF BASIS SET SHELLS             =   45
 NUMBER OF CARTESIAN GAUSSIAN BASIS FUNCTIONS =   65
 NOTE: THIS RUN WILL RESTRICT THE MO VARIATION SPACE TO SPHERICAL HARMONICS.
 THE NUMBER OF ORBITALS KEPT IN THE VARIATIONAL SPACE WILL BE PRINTED LATER.
 NUMBER OF ELECTRONS                          =   40
 CHARGE OF MOLECULE                           =    0
 SPIN MULTIPLICITY                            =    1
 NUMBER OF OCCUPIED ORBITALS (ALPHA)          =   20
 NUMBER OF OCCUPIED ORBITALS (BETA )          =   20
 TOTAL NUMBER OF ATOMS                        =   15
 THE NUCLEAR REPULSION ENERGY IS      210.6776278285

     LEBEDEV GRID-BASED DFT OPTIONS
     ------------------------------
     DFTTYP=PBE     
     NRAD  =      96     NLEB  =     302
     NRAD0 =      24     NLEB0 =     110
     SWOFF =    5.00E-03 (PURE SCF -> DFT)
     SWITCH=    3.00E-04 (COARSE -> TIGHT GRID)
     THRESH=    0.00E+00 GTHRE=    1.00E+00

 GRIMME'S EMPIRICAL DISPERSION CORRECTION= F

     $CONTRL OPTIONS
     ---------------
 SCFTYP=RHF          RUNTYP=OPTIMIZE     EXETYP=RUN     
 MPLEVL=       0     CITYP =NONE         CCTYP =NONE         VBTYP =NONE    
 DFTTYP=PBE          TDDFT =NONE    
 MULT  =       1     ICHARG=       0     NZVAR =      39     COORD =PRINAXIS
 PP    =NONE         RELWFN=NONE         LOCAL =NONE         NUMGRD=       F
 ISPHER=       1     NOSYM =       0     MAXIT =      30     UNITS =ANGS    
 PLTORB=       F     MOLPLT=       F     AIMPAC=       F     FRIEND=        
 NPRINT=       7     IREST =       0     GEOM  =INPUT   
 NORMF =       0     NORMP =       0     ITOL  =      20     ICUT  =       9
 INTTYP=BEST         GRDTYP=BEST         QMTTOL= 1.0E-06

     $SYSTEM OPTIONS
     ---------------
  REPLICATED MEMORY=     1000000 WORDS (ON EVERY NODE).
 DISTRIBUTED MEMDDI=           0 MILLION WORDS IN AGGREGATE,
 MEMDDI DISTRIBUTED OVER   1 PROCESSORS IS           0 WORDS/PROCESSOR.
 TOTAL MEMORY REQUESTED ON EACH PROCESSOR=     1000000 WORDS.
 TIMLIM=      525600.00 MINUTES, OR     365.0 DAYS.
 PARALL= F  BALTYP=  DLB     KDIAG=    0  COREFL= F
 MXSEQ2=     300 MXSEQ3=     150  mem10=         0

          ----------------
          PROPERTIES INPUT
          ----------------

     MOMENTS            FIELD           POTENTIAL          DENSITY
 IEMOM =       1   IEFLD =       0   IEPOT =       0   IEDEN =       0
 WHERE =COMASS     WHERE =NUCLEI     WHERE =NUCLEI     WHERE =NUCLEI  
 OUTPUT=BOTH       OUTPUT=BOTH       OUTPUT=BOTH       OUTPUT=BOTH    
 IEMINT=       0   IEFINT=       0                     IEDINT=       0
                                                       MORB  =       0
          EXTRAPOLATION IN EFFECT
          DIIS IN EFFECT
 ORBITAL PRINTING OPTION: NPREO=     1    65     2     1

     -------------------------------
     INTEGRAL TRANSFORMATION OPTIONS
     -------------------------------
     NWORD  =            0
     CUTOFF = 1.0E-09     MPTRAN =       0
     DIRTRF =       F     AOINTS =DUP     

          ----------------------
          INTEGRAL INPUT OPTIONS
          ----------------------
 NOPK  =       1 NORDER=       0 SCHWRZ=       T
 
 
 -----------------------------------------------
  STATISTICS ON AUTOMATIC COORDINATE GENERATION 
 -----------------------------------------------
  NUMBER OF USER SPECIFIED BONDS                              0
  NUMBER OF BONDS                                            15
  NUMBER OF ANGLES                                           30
  NUMBER OF TORSIONS                                         45
  NUMBER OF EXTRA COORD.                                      0
  NUMBER OF EXTRA COORD. FOR CONSTRAINTS                      0
  NUMBER OF CONSTRAINED COORD.                                0
 
  TOTAL NUMBER OF PRIMITIVES                                 90
 -----------------------------------------------

   --- ENCODED Z MATRIX ---
 COORD  TYPE   I   J   K   L   M   N
    1      1    1   2
    2      1    1  14
    3      1    1  15
    4      1    1   5
    5      1    2  12
    6      1    2  13
    7      1    2   3
    8      1    3   4
    9      1    3  11
   10      1    3  10
   11      1    4   5
   12      1    4   9
   13      1    4   8
   14      1    5   7
   15      1    5   6
   16      2    1   5   7
   17      2    1   5   6
   18      2    1   2  13
   19      2    1   2   3
   20      2    1   5   4
   21      2    1   2  12
   22      2    2   1   5
   23      2    2   1  15
   24      2    2   3  10
   25      2    2   3   4
   26      2    2   1  14
   27      2    2   3  11
   28      2    3   2  12
   29      2    3   2  13
   30      2    3   4   8
   31      2    3   4   9
   32      2    3   4   5
   33      2    4   5   6
   34      2    4   5   7
   35      2    4   3  10
   36      2    4   3  11
   37      2    5   4   8
   38      2    5   4   9
   39      2    5   1  15
   40      2    5   1  14
   41      2    6   5   7
   42      2    8   4   9
   43      2   10   3  11
   44      2   12   2  13
   45      2   14   1  15
   46      3    1   2   3  10
   47      3    1   2   3  11
   48      3    1   2   3   4
   49      3    1   5   4   8
   50      3    1   5   4   9
   51      3    1   5   4   3
   52      3    2   1   5   7
   53      3    2   3   4   8
   54      3    2   3   4   9
   55      3    2   3   4   5
   56      3    2   1   5   6
   57      3    2   1   5   4
   58      3    3   2   1   5
   59      3    3   2   1  15
   60      3    3   2   1  14
   61      3    3   4   5   6
   62      3    3   4   5   7
   63      3    4   3   2  13
   64      3    4   3   2  12
   65      3    4   5   1  15
   66      3    4   5   1  14
   67      3    5   4   3  11
   68      3    5   1   2  12
   69      3    5   1   2  13
   70      3    5   4   3  10
   71      3    6   5   1  15
   72      3    6   5   1  14
   73      3    6   5   4   8
   74      3    6   5   4   9
   75      3    7   5   1  15
   76      3    7   5   4   8
   77      3    7   5   4   9
   78      3    7   5   1  14
   79      3    8   4   3  10
   80      3    8   4   3  11
   81      3    9   4   3  10
   82      3    9   4   3  11
   83      3   10   3   2  13
   84      3   10   3   2  12
   85      3   11   3   2  13
   86      3   11   3   2  12
   87      3   12   2   1  15
   88      3   12   2   1  14
   89      3   13   2   1  14
   90      3   13   2   1  15

          INDEP./SYM. INTERNAL COORDINATES
          --------------------------------
 CRD  1=  -0.1545 (  1)  0.3289 (  4)  0.1352 (  8) -0.2570 ( 11) -0.3957 ( 19)
           0.1351 ( 21)  0.2224 ( 22) -0.1180 ( 24)  0.4305 ( 25) -0.1167 ( 26)
          -0.1621 ( 27)  0.1204 ( 28)  0.1116 ( 29)  0.1112 ( 30) -0.2620 ( 32)
          -0.1053 ( 35) -0.1105 ( 36)  0.1499 ( 43) -0.1383 ( 44)
 CRD  2=   0.2441 (  1) -0.1062 (  4) -0.2755 (  7)  0.2662 (  8) -0.1302 ( 11)
           0.1087 ( 16)  0.1219 ( 17)  0.1129 ( 18) -0.1542 ( 19) -0.4135 ( 20)
           0.3529 ( 22) -0.1230 ( 25)  0.3380 ( 32)  0.1322 ( 34) -0.1435 ( 37)
          -0.1606 ( 38) -0.1563 ( 39) -0.1398 ( 40) -0.1368 ( 41)  0.1023 ( 42)
           0.1132 ( 45)
 CRD  3=   0.4663 (  1)  0.1193 (  2)  0.1008 (  3)  0.5036 (  4) -0.1083 (  7)
          -0.2717 (  8)  0.1211 ( 11)  0.1102 ( 16)  0.1130 ( 17)  0.1012 ( 18)
          -0.1039 ( 20)  0.1001 ( 21) -0.2194 ( 22)  0.1520 ( 25) -0.1200 ( 30)
           0.1618 ( 32) -0.1258 ( 45)  0.1187 ( 73) -0.1159 ( 77) -0.1029 ( 84)
           0.1000 ( 85)
 CRD  4=   0.2260 (  1) -0.2206 (  4)  0.2844 (  7) -0.2749 (  8) -0.5577 ( 11)
          -0.2076 ( 19)  0.1720 ( 20)  0.1145 ( 26)  0.1058 ( 27)  0.1562 ( 32)
          -0.1324 ( 34) -0.1081 ( 37) -0.1192 ( 38)  0.1155 ( 41)  0.1129 ( 71)
          -0.1174 ( 78) -0.1155 ( 79)  0.1188 ( 82)
 CRD  5=   0.3409 (  1)  0.1699 (  4)  0.1097 (  5)  0.1203 (  6)  0.5648 (  7)
           0.4735 (  8)  0.1147 (  9)  0.1270 ( 10)  0.2327 ( 11) -0.1137 ( 43)
          -0.1030 ( 44)
 CRD  6=  -0.2382 ( 16)  0.2262 ( 17)  0.1258 ( 18) -0.1281 ( 21) -0.1987 ( 23)
           0.2043 ( 26)  0.1556 ( 30) -0.1684 ( 31) -0.2261 ( 33)  0.2226 ( 34)
          -0.2120 ( 37)  0.2011 ( 38)  0.2357 ( 39) -0.2315 ( 40) -0.1077 ( 46)
          -0.1080 ( 47) -0.1880 ( 48) -0.1540 ( 49) -0.1707 ( 50)  0.1114 ( 52)
           0.1733 ( 55)  0.1249 ( 56)  0.1476 ( 58) -0.1564 ( 65) -0.1464 ( 66)
           0.1441 ( 67)  0.1578 ( 68)  0.1713 ( 69)  0.1584 ( 70)
 CRD  7=  -0.2003 ( 18)  0.2105 ( 21)  0.1495 ( 23) -0.2428 ( 24) -0.1437 ( 26)
           0.2495 ( 27) -0.2378 ( 28)  0.2242 ( 29)  0.1980 ( 30) -0.1808 ( 31)
           0.2267 ( 35) -0.2412 ( 36) -0.1593 ( 37)  0.1362 ( 38)  0.1005 ( 40)
           0.1312 ( 46)  0.1353 ( 47)  0.1666 ( 51) -0.1129 ( 52) -0.1733 ( 53)
          -0.1608 ( 54) -0.1145 ( 56) -0.1822 ( 57)  0.1270 ( 58)  0.1594 ( 59)
           0.1613 ( 60)  0.1335 ( 61)  0.1363 ( 62) -0.1505 ( 63) -0.1566 ( 64)
 CRD  8=  -0.3035 (  1)  0.3817 (  4)  0.1230 (  7) -0.2711 ( 11)  0.1665 ( 16)
           0.1227 ( 17) -0.1043 ( 18)  0.1860 ( 19) -0.1728 ( 21) -0.1239 ( 23)
          -0.2311 ( 25) -0.1011 ( 26)  0.1046 ( 27)  0.2076 ( 32) -0.1051 ( 33)
          -0.1589 ( 37) -0.1171 ( 38)  0.1339 ( 39)  0.1748 ( 40)  0.1108 ( 60)
          -0.1124 ( 62)  0.1503 ( 72)  0.1175 ( 74) -0.1538 ( 75) -0.1254 ( 76)
           0.1359 ( 88) -0.1342 ( 90)
 CRD  9=  -0.1859 (  1)  0.3102 (  7) -0.3486 (  8)  0.2480 ( 11) -0.1593 ( 19)
          -0.2560 ( 20)  0.2507 ( 22) -0.1030 ( 23) -0.1047 ( 26)  0.1369 ( 27)
           0.1301 ( 28)  0.1439 ( 29) -0.1676 ( 30) -0.1344 ( 31)  0.1461 ( 32)
           0.1400 ( 34) -0.1174 ( 35) -0.1407 ( 36) -0.1115 ( 41)  0.1011 ( 45)
           0.1615 ( 80) -0.1517 ( 81) -0.1400 ( 83)  0.1468 ( 86)
 CRD 10=   0.1005 (  6) -0.1066 ( 10)  0.1120 ( 12) -0.1117 ( 15)  0.1025 ( 16)
          -0.1549 ( 17)  0.1326 ( 18) -0.1346 ( 24)  0.1316 ( 26) -0.1181 ( 28)
           0.1116 ( 29) -0.1002 ( 30)  0.1231 ( 31) -0.1322 ( 33)  0.1210 ( 34)
          -0.1292 ( 35)  0.1011 ( 36)  0.1260 ( 38) -0.1132 ( 39) -0.1772 ( 46)
          -0.1735 ( 47)  0.1858 ( 49)  0.1837 ( 50)  0.1925 ( 52) -0.1654 ( 53)
          -0.1864 ( 54)  0.1769 ( 56)  0.1858 ( 59)  0.1646 ( 60) -0.1981 ( 61)
          -0.1726 ( 62)  0.1881 ( 63)  0.1640 ( 64) -0.1741 ( 65) -0.2003 ( 66)
           0.1682 ( 67) -0.1779 ( 68) -0.1664 ( 69)  0.1793 ( 70)
 CRD 11=  -0.2546 (  5)  0.2681 (  6)  0.2160 (  9) -0.2291 ( 10) -0.1116 ( 12)
           0.1195 ( 13) -0.3083 ( 14)  0.3286 ( 15)  0.1070 ( 17)  0.1310 ( 18)
          -0.1259 ( 21)  0.1610 ( 23) -0.1630 ( 26)  0.1620 ( 30) -0.1731 ( 31)
          -0.1634 ( 35)  0.1415 ( 36) -0.1185 ( 37)  0.1262 ( 38) -0.1556 ( 39)
           0.1504 ( 40) -0.1585 ( 46) -0.1436 ( 47) -0.1328 ( 49) -0.1429 ( 50)
           0.1245 ( 61)  0.1081 ( 62)  0.1476 ( 63)  0.1482 ( 64)  0.1192 ( 65)
           0.1149 ( 66)
 CRD 12=  -0.3064 (  2)  0.3133 (  3)  0.1658 (  5) -0.1590 (  6)  0.2335 (  9)
          -0.2402 ( 10)  0.2693 ( 12) -0.2451 ( 13)  0.1280 ( 16) -0.1374 ( 17)
           0.1091 ( 18) -0.1618 ( 24)  0.1502 ( 27)  0.1685 ( 28) -0.1749 ( 29)
           0.1532 ( 33) -0.1391 ( 34) -0.1114 ( 37)  0.1343 ( 38)  0.1010 ( 39)
          -0.1059 ( 52) -0.1415 ( 53) -0.1558 ( 54) -0.1214 ( 56) -0.1354 ( 59)
          -0.1307 ( 60)  0.1417 ( 67)  0.1420 ( 68)  0.1478 ( 69)  0.1471 ( 70)
 CRD 13=   0.3798 (  2) -0.4107 (  3)  0.3607 (  5) -0.3633 (  6)  0.1676 (  9)
          -0.1641 ( 10) -0.2430 ( 14)  0.2639 ( 15)  0.1049 ( 46)  0.1074 ( 47)
           0.1135 ( 56)  0.1173 ( 57) -0.1318 ( 58)
 CRD 14=  -0.1518 (  5)  0.1534 (  6) -0.3360 (  9)  0.3338 ( 10)  0.4196 ( 12)
          -0.4128 ( 13) -0.2688 ( 14)  0.2743 ( 15) -0.1160 ( 51)  0.1306 ( 55)
          -0.1015 ( 61) -0.1140 ( 62) -0.1022 ( 63)
 CRD 15=   0.6706 ( 14)  0.6569 ( 15)  0.1580 ( 41)
 CRD 16=  -0.4714 (  9) -0.4619 ( 10)  0.4616 ( 12)  0.4720 ( 13)  0.1243 ( 42)
          -0.1320 ( 43)  0.1008 ( 82)
 CRD 17=   0.5590 (  2)  0.5484 (  3) -0.2762 (  9) -0.2770 ( 10) -0.2454 ( 12)
          -0.2541 ( 13)  0.1413 ( 45)
 CRD 18=  -0.2440 (  2) -0.2452 (  3)  0.4829 (  5)  0.4815 (  6) -0.2311 (  9)
          -0.2292 ( 10) -0.2986 ( 12) -0.2974 ( 13)  0.1364 ( 44)
 CRD 19=  -0.2587 (  2) -0.2589 (  3) -0.4434 (  5) -0.4373 (  6) -0.2896 (  9)
          -0.2935 ( 10) -0.2526 ( 12) -0.2561 ( 13) -0.1317 ( 44)
 CRD 20=  -0.1347 ( 16)  0.1153 ( 17)  0.1188 ( 18) -0.1173 ( 21)  0.1448 ( 23)
          -0.1186 ( 24) -0.1171 ( 26)  0.1103 ( 27)  0.1230 ( 28) -0.1237 ( 29)
          -0.1159 ( 30)  0.1301 ( 31) -0.1420 ( 33)  0.1149 ( 34)  0.1096 ( 35)
          -0.1135 ( 36)  0.1266 ( 37) -0.1110 ( 38) -0.1263 ( 39)  0.1317 ( 40)
           0.1094 ( 56)  0.2090 ( 71)  0.1789 ( 72)  0.1499 ( 73)  0.1722 ( 74)
           0.1768 ( 75)  0.1673 ( 76)  0.1896 ( 77)  0.1467 ( 78)  0.1703 ( 79)
           0.1581 ( 80)  0.1550 ( 81)  0.1428 ( 82)  0.1554 ( 83)  0.1482 ( 84)
           0.1590 ( 85)  0.1518 ( 86)  0.1674 ( 87)  0.1754 ( 88)  0.1734 ( 89)
           0.1655 ( 90)
 CRD 21=   0.1568 (  5) -0.1583 (  6) -0.1566 (  9)  0.1665 ( 10)  0.1553 ( 14)
          -0.1652 ( 15)  0.1219 ( 23)  0.1138 ( 24) -0.1061 ( 26) -0.1054 ( 27)
           0.1073 ( 28) -0.1071 ( 29)  0.1239 ( 30) -0.1307 ( 31) -0.1498 ( 37)
           0.1398 ( 38) -0.1414 ( 39)  0.1314 ( 40) -0.1076 ( 53)  0.1031 ( 59)
           0.1027 ( 68)  0.1017 ( 69) -0.1073 ( 70)  0.1459 ( 71)  0.1261 ( 72)
          -0.1462 ( 73) -0.1665 ( 74)  0.1397 ( 75) -0.1551 ( 76) -0.1754 ( 77)
           0.1199 ( 78) -0.2174 ( 79) -0.2089 ( 80) -0.2037 ( 81) -0.1951 ( 82)
           0.2047 ( 87)  0.2008 ( 88)  0.1998 ( 89)  0.2037 ( 90)
 CRD 22=  -0.1586 (  2)  0.1627 (  3)  0.1209 (  5) -0.1267 (  6)  0.1158 (  9)
          -0.1162 ( 10)  0.1658 ( 12) -0.1651 ( 13) -0.1280 ( 16)  0.1152 ( 17)
          -0.1461 ( 18)  0.1359 ( 21) -0.1333 ( 33)  0.1178 ( 34) -0.1362 ( 35)
           0.1447 ( 36) -0.1203 ( 46) -0.1300 ( 47)  0.1025 ( 56) -0.1337 ( 63)
          -0.1239 ( 64)  0.1980 ( 71)  0.1794 ( 72)  0.1534 ( 73)  0.1552 ( 74)
           0.1730 ( 75)  0.1680 ( 76)  0.1699 ( 77)  0.1544 ( 78) -0.2468 ( 83)
          -0.2370 ( 84) -0.2565 ( 85) -0.2468 ( 86)
 CRD 23=  -0.1016 (  2)  0.1166 (  3) -0.1125 ( 49) -0.1298 ( 50)  0.1529 ( 52)
           0.1891 ( 56) -0.1382 ( 59) -0.1445 ( 60) -0.1171 ( 61) -0.1452 ( 62)
           0.1649 ( 65)  0.1410 ( 66) -0.1321 ( 68) -0.1333 ( 69)  0.2768 ( 71)
           0.2529 ( 72) -0.1704 ( 73) -0.1877 ( 74)  0.2406 ( 75) -0.1985 ( 76)
          -0.2158 ( 77)  0.2167 ( 78) -0.2044 ( 87) -0.2107 ( 88) -0.2119 ( 89)
          -0.2056 ( 90)
 CRD 24=  -0.1384 ( 46) -0.1522 ( 47)  0.1800 ( 53)  0.1607 ( 54)  0.1101 ( 59)
           0.1053 ( 60) -0.1012 ( 61) -0.1181 ( 62) -0.1602 ( 63) -0.1468 ( 64)
           0.1437 ( 67)  0.1655 ( 70) -0.1434 ( 73) -0.1529 ( 74) -0.1603 ( 76)
          -0.1698 ( 77)  0.2642 ( 79)  0.2424 ( 80)  0.2449 ( 81)  0.2231 ( 82)
          -0.2178 ( 83) -0.2044 ( 84) -0.2316 ( 85) -0.2182 ( 86)  0.1495 ( 87)
           0.1447 ( 88)  0.1372 ( 89)  0.1420 ( 90)
 CRD 25=   0.3020 (  2) -0.2962 (  3) -0.2971 (  5)  0.2908 (  6)  0.3004 (  9)
          -0.2966 ( 10)  0.2948 ( 12) -0.3014 ( 13)  0.3182 ( 14) -0.3152 ( 15)
 CRD 26=  -0.1030 (  7)  0.1173 ( 11) -0.1265 ( 18) -0.1279 ( 21)  0.1638 ( 23)
           0.1755 ( 26)  0.1613 ( 30)  0.1691 ( 31) -0.1546 ( 35) -0.1523 ( 36)
          -0.1101 ( 37) -0.1067 ( 38) -0.1526 ( 39) -0.1611 ( 40) -0.2031 ( 41)
          -0.1225 ( 42)  0.1463 ( 43)  0.1785 ( 44) -0.1323 ( 46)  0.1290 ( 47)
          -0.1212 ( 49)  0.1222 ( 50)  0.1005 ( 59) -0.1098 ( 62) -0.1177 ( 63)
           0.1216 ( 64)  0.1096 ( 65) -0.1127 ( 66) -0.1747 ( 72)  0.2268 ( 74)
           0.1664 ( 75) -0.2242 ( 76) -0.2517 ( 83)  0.2489 ( 86) -0.1263 ( 88)
           0.1304 ( 90)
 CRD 27=  -0.1172 (  1)  0.1437 (  8)  0.1346 ( 16)  0.1351 ( 17)  0.1537 ( 24)
           0.1457 ( 27) -0.1559 ( 28) -0.1560 ( 29) -0.1595 ( 33) -0.1616 ( 34)
           0.1633 ( 37)  0.1558 ( 38) -0.1036 ( 39) -0.1027 ( 40) -0.1499 ( 42)
          -0.1612 ( 43)  0.1140 ( 44)  0.1818 ( 45) -0.1293 ( 52)  0.1424 ( 53)
          -0.1319 ( 54)  0.1152 ( 56)  0.1080 ( 59)  0.1308 ( 67) -0.1215 ( 68)
           0.1293 ( 69) -0.1373 ( 70)  0.1565 ( 72)  0.1078 ( 74) -0.1881 ( 75)
           0.2702 ( 80) -0.2723 ( 81) -0.2193 ( 88)  0.2361 ( 90)
 CRD 28=  -0.2461 (  1)  0.1274 (  4)  0.2541 (  7) -0.1822 (  8)  0.1536 ( 23)
          -0.1880 ( 24)  0.1701 ( 26) -0.1856 ( 27)  0.2025 ( 35)  0.2053 ( 36)
          -0.1759 ( 39) -0.1928 ( 40)  0.1076 ( 42)  0.1609 ( 46) -0.1417 ( 47)
           0.1364 ( 59) -0.1346 ( 60)  0.1117 ( 61) -0.1186 ( 67)  0.1183 ( 70)
           0.1991 ( 73) -0.1523 ( 77) -0.1115 ( 78)  0.1052 ( 79) -0.1317 ( 80)
           0.1105 ( 81) -0.1264 ( 82)  0.1604 ( 83)  0.1536 ( 84) -0.1422 ( 85)
          -0.1490 ( 86)  0.1610 ( 87) -0.1101 ( 88) -0.1517 ( 89)  0.1193 ( 90)
 CRD 29=   0.1339 (  1) -0.2662 (  7)  0.2966 (  8) -0.2169 ( 11) -0.1877 ( 18)
          -0.1957 ( 21)  0.1039 ( 26)  0.1647 ( 28)  0.1557 ( 29) -0.1789 ( 30)
          -0.1672 ( 31)  0.1877 ( 37)  0.1884 ( 38) -0.1355 ( 45)  0.1061 ( 49)
           0.1140 ( 53) -0.1545 ( 54) -0.1538 ( 63)  0.1517 ( 64) -0.1161 ( 66)
           0.1396 ( 71) -0.1202 ( 74)  0.1327 ( 76) -0.1753 ( 78)  0.1075 ( 79)
           0.1297 ( 80) -0.1611 ( 81) -0.1389 ( 82) -0.1624 ( 83)  0.1431 ( 84)
          -0.1397 ( 85)  0.1658 ( 86) -0.1031 ( 90)
 CRD 30=  -0.2486 (  1)  0.3594 (  4)  0.1306 (  8) -0.3158 ( 11) -0.1786 ( 16)
          -0.1670 ( 17) -0.1349 ( 28) -0.1298 ( 29)  0.1849 ( 33)  0.1875 ( 34)
          -0.1174 ( 43)  0.1178 ( 44)  0.1428 ( 52) -0.1384 ( 56) -0.1267 ( 61)
           0.1119 ( 62)  0.1079 ( 67) -0.1302 ( 68)  0.1118 ( 69) -0.1952 ( 72)
          -0.1912 ( 74)  0.2155 ( 75)  0.1712 ( 76)  0.1258 ( 82) -0.1048 ( 87)
          -0.1496 ( 88)  0.1373 ( 90)
 CRD 31=   0.2341 (  5) -0.2183 (  6) -0.2067 (  9)  0.1905 ( 10)  0.1197 ( 12)
           0.2939 ( 14) -0.2724 ( 15) -0.1194 ( 16)  0.1183 ( 17)  0.1286 ( 18)
          -0.1286 ( 21) -0.1056 ( 26)  0.1204 ( 30) -0.1291 ( 31)  0.1181 ( 33)
          -0.1259 ( 35)  0.1456 ( 36) -0.1622 ( 46) -0.1569 ( 47) -0.1395 ( 49)
          -0.1237 ( 50) -0.1286 ( 52) -0.1561 ( 56)  0.1691 ( 61)  0.1516 ( 62)
           0.1806 ( 63)  0.1709 ( 64)  0.1040 ( 66) -0.1199 ( 68) -0.1428 ( 69)
           0.1067 ( 70)  0.1475 ( 79)  0.1169 ( 80)  0.1019 ( 81) -0.1227 ( 89)
          -0.1109 ( 90)
 CRD 32=  -0.2681 (  2)  0.2477 (  3)  0.1264 (  5) -0.1312 (  6)  0.1747 (  9)
          -0.1869 ( 10)  0.2092 ( 12) -0.2498 ( 13)  0.1350 ( 24) -0.1402 ( 27)
          -0.1299 ( 28)  0.1324 ( 29)  0.1297 ( 37) -0.1157 ( 38) -0.1153 ( 39)
           0.1183 ( 40) -0.1040 ( 49) -0.1610 ( 50)  0.1650 ( 53)  0.1913 ( 54)
           0.1906 ( 59)  0.1723 ( 60) -0.1717 ( 65) -0.1487 ( 66) -0.1661 ( 67)
          -0.1380 ( 68) -0.1418 ( 69) -0.1525 ( 70) -0.1029 ( 71) -0.1038 ( 74)
          -0.1273 ( 77)  0.1049 ( 83)  0.1183 ( 84)  0.1169 ( 85)  0.1303 ( 86)
 CRD 33=  -0.1713 (  1) -0.1815 (  4) -0.2081 (  7) -0.1795 (  8)  0.1111 (  9)
          -0.1836 ( 11) -0.2150 ( 41) -0.1957 ( 42) -0.2126 ( 43) -0.2041 ( 44)
          -0.1966 ( 45)  0.1034 ( 46)  0.1103 ( 52) -0.1034 ( 66) -0.1091 ( 70)
          -0.1765 ( 72)  0.1689 ( 74)  0.1787 ( 75) -0.1848 ( 76)  0.1810 ( 80)
          -0.1840 ( 81)  0.1822 ( 83) -0.1687 ( 86)  0.1865 ( 88) -0.1726 ( 90)
 CRD 34=   0.1405 (  1) -0.2326 (  4) -0.1027 (  5)  0.2331 (  7) -0.2473 ( 11)
           0.1737 ( 20)  0.1139 ( 38)  0.1037 ( 39)  0.1039 ( 40) -0.2673 ( 41)
           0.1397 ( 43)  0.1727 ( 44)  0.1643 ( 52) -0.1041 ( 56)  0.1339 ( 61)
          -0.1311 ( 62) -0.1103 ( 67) -0.1006 ( 68)  0.1177 ( 69)  0.1004 ( 70)
          -0.1601 ( 71)  0.1867 ( 73)  0.1124 ( 74)  0.1083 ( 75) -0.1527 ( 77)
           0.2094 ( 78)  0.1660 ( 79) -0.2095 ( 82) -0.1057 ( 83) -0.1727 ( 87)
           0.1909 ( 89)
 CRD 35=  -0.2643 (  1)  0.1159 (  2) -0.1768 (  4)  0.2541 (  8)  0.1406 ( 11)
           0.1159 ( 18)  0.1001 ( 21)  0.1444 ( 22) -0.1164 ( 32) -0.1014 ( 35)
           0.1990 ( 42)  0.1348 ( 43) -0.2356 ( 45) -0.1308 ( 46)  0.1009 ( 47)
           0.1279 ( 49) -0.1007 ( 50) -0.1148 ( 59)  0.1081 ( 60)  0.1182 ( 63)
          -0.1147 ( 64)  0.1124 ( 65) -0.1449 ( 66)  0.1682 ( 71)  0.1896 ( 73)
          -0.1666 ( 77) -0.1998 ( 78)  0.1104 ( 81) -0.2409 ( 84)  0.2236 ( 85)
          -0.1255 ( 87)  0.1146 ( 89) -0.1083 ( 90)
 CRD 36=  -0.1036 (  6)  0.2116 (  7) -0.1913 (  8) -0.1756 ( 19) -0.1943 ( 20)
           0.2221 ( 22)  0.1386 ( 32)  0.1660 ( 41) -0.1564 ( 42)  0.1828 ( 44)
          -0.2216 ( 45) -0.1246 ( 49) -0.1152 ( 52) -0.1104 ( 59)  0.1564 ( 60)
           0.1027 ( 65) -0.1329 ( 66) -0.1393 ( 68)  0.1150 ( 69)  0.1881 ( 71)
          -0.2082 ( 73)  0.1623 ( 77) -0.2459 ( 78)  0.1102 ( 79) -0.1104 ( 82)
           0.1446 ( 84) -0.1073 ( 85) -0.2632 ( 87)  0.2579 ( 89)
 CRD 37=  -0.1564 (  1)  0.1582 (  4) -0.1186 ( 10) -0.1599 ( 11)  0.1700 ( 19)
          -0.2419 ( 25)  0.2034 ( 32) -0.1994 ( 42)  0.2372 ( 43) -0.1562 ( 44)
          -0.1163 ( 46)  0.1429 ( 47)  0.1574 ( 53) -0.1369 ( 54) -0.1526 ( 64)
          -0.1734 ( 67)  0.1094 ( 70) -0.1745 ( 73)  0.1397 ( 77)  0.2641 ( 79)
          -0.3130 ( 82) -0.2623 ( 84)  0.2482 ( 85)  0.1265 ( 87) -0.1113 ( 89)
 CRD 38=   0.1284 (  2) -0.1392 (  3)  0.1766 (  5) -0.1764 (  6)  0.1529 (  9)
          -0.1544 ( 10)  0.1429 ( 18) -0.1401 ( 21)  0.1400 ( 23)  0.1510 ( 24)
          -0.1405 ( 26) -0.1484 ( 27) -0.1587 ( 28)  0.1542 ( 29) -0.1035 ( 30)
           0.1010 ( 31)  0.1080 ( 35) -0.1107 ( 36) -0.1169 ( 46) -0.1151 ( 47)
          -0.3047 ( 48) -0.1419 ( 52)  0.1418 ( 53)  0.1363 ( 54)  0.2238 ( 55)
          -0.1542 ( 56) -0.1548 ( 57)  0.2933 ( 58)  0.1396 ( 59)  0.1224 ( 60)
          -0.1063 ( 61) -0.1163 ( 62)  0.1145 ( 83)  0.1154 ( 84)  0.1164 ( 85)
           0.1173 ( 86) -0.1000 ( 87) -0.1172 ( 88) -0.1162 ( 89)
 CRD 39=   0.1130 (  2) -0.1293 (  3)  0.1671 ( 12) -0.1634 ( 13) -0.1729 ( 14)
           0.1835 ( 15)  0.1385 ( 16) -0.1286 ( 17)  0.1153 ( 30) -0.1233 ( 31)
          -0.1620 ( 33)  0.1573 ( 34) -0.1006 ( 35)  0.1129 ( 36)  0.1561 ( 37)
          -0.1448 ( 38)  0.1258 ( 39) -0.1263 ( 40)  0.1017 ( 49)  0.1109 ( 50)
           0.3194 ( 51) -0.2410 ( 55) -0.2855 ( 57)  0.1409 ( 58)  0.1223 ( 61)
           0.1035 ( 62)  0.1115 ( 63)  0.1178 ( 64) -0.1503 ( 65) -0.1220 ( 66)
          -0.1586 ( 67)  0.1378 ( 68)  0.1346 ( 69) -0.1563 ( 70) -0.1142 ( 76)
          -0.1050 ( 77)  0.1144 ( 78)

 THE DETERMINANT OF THE G MATRIX IS 10**(    -5)


                     --------------------
                     INTERNAL COORDINATES
                     --------------------

                 - - ATOMS - -         COORDINATE      COORDINATE
 NO.   TYPE    I  J  K  L  M  N        (BOHR,RAD)       (ANG,DEG)
 ----------------------------------------------------------------
   1 STRETCH   1  2                     2.5617747       1.3556329
   2 STRETCH   1 14                     1.9492555       1.0315017
   3 STRETCH   1 15                     1.9612094       1.0378274
   4 STRETCH   1  5                     2.5592151       1.3542784
   5 STRETCH   2 12                     1.9761556       1.0457366
   6 STRETCH   2 13                     1.9642568       1.0394400
   7 STRETCH   2  3                     2.5311188       1.3394105
   8 STRETCH   3  4                     2.6049385       1.3784742
   9 STRETCH   3 11                     1.9851662       1.0505048
  10 STRETCH   3 10                     1.9639088       1.0392559
  11 STRETCH   4  5                     2.4653880       1.3046272
  12 STRETCH   4  9                     1.9327422       1.0227632
  13 STRETCH   4  8                     1.9678091       1.0413198
  14 STRETCH   5  7                     1.9969064       1.0567174
  15 STRETCH   5  6                     1.9787730       1.0471217
  16 BEND      1  5  7                  1.9107550     109.4781985
  17 BEND      1  5  6                  1.6809228      96.3097837
  18 BEND      1  2 13                  1.8394674     105.3937182
  19 BEND      1  2  3                  1.8555261     106.3138129
  20 BEND      1  5  4                  1.8400495     105.4270719
  21 BEND      1  2 12                  1.8348986     105.1319483
  22 BEND      2  1  5                  1.9290533     110.5266107
  23 BEND      2  1 15                  1.8511258     106.0616968
  24 BEND      2  3 10                  1.8552477     106.2978605
  25 BEND      2  3  4                  1.8576906     106.4378295
  26 BEND      2  1 14                  1.8655726     106.8894379
  27 BEND      2  3 11                  1.8327063     105.0063359
  28 BEND      3  2 12                  1.9163162     109.7968320
  29 BEND      3  2 13                  1.8485090     105.9117627
  30 BEND      3  4  8                  1.8579614     106.4533451
  31 BEND      3  4  9                  1.8884642     108.2010304
  32 BEND      3  4  5                  1.9326121     110.7305164
  33 BEND      4  5  6                  1.8520599     106.1152130
  34 BEND      4  5  7                  1.7953466     102.8657806
  35 BEND      4  3 10                  1.7870737     102.3917821
  36 BEND      4  3 11                  1.9247972     110.2827579
  37 BEND      5  4  8                  1.8556979     106.3236584
  38 BEND      5  4  9                  1.7081346      97.8689062
  39 BEND      5  1 15                  1.7478393     100.1438137
  40 BEND      5  1 14                  1.8536255     106.2049164
  41 BEND      6  5  7                  2.3385726     133.9903429
  42 BEND      8  4  9                  2.2088704     126.5589535
  43 BEND     10  3 11                  2.1849027     125.1857061
  44 BEND     12  2 13                  2.1493979     123.1514280
  45 BEND     14  1 15                  2.2068446     126.4428841
  46 TORSION   1  2  3 10               2.0100252     115.1659625
  47 TORSION   1  2  3 11              -1.9270679    -110.4128598
  48 TORSION   1  2  3  4               0.1141651       6.5411796
  49 TORSION   1  5  4  8              -1.9109826    -109.4912356
  50 TORSION   1  5  4  9               2.0711698     118.6692889
  51 TORSION   1  5  4  3               0.1003300       5.7484875
  52 TORSION   2  1  5  7               1.8939172     108.5134607
  53 TORSION   2  3  4  8               1.8717575     107.2438035
  54 TORSION   2  3  4  9              -1.9912093    -114.0878909
  55 TORSION   2  3  4  5              -0.1381404      -7.9148638
  56 TORSION   2  1  5  6              -1.9233289    -110.1986275
  57 TORSION   2  1  5  4              -0.0265785      -1.5228383
  58 TORSION   3  2  1  5              -0.0576722      -3.3043733
  59 TORSION   3  2  1 15              -1.9368289    -110.9721204
  60 TORSION   3  2  1 14               1.9522034     111.8530173
  61 TORSION   3  4  5  6               1.8708563     107.1921724
  62 TORSION   3  4  5  7              -1.9015415    -108.9503039
  63 TORSION   4  3  2 13               2.0650942     118.3211814
  64 TORSION   4  3  2 12              -1.8620813    -106.6894012
  65 TORSION   4  5  1 15               1.9201172     110.0146099
  66 TORSION   4  5  1 14              -2.0439392    -117.1090888
  67 TORSION   5  4  3 11               1.8407286     105.4659803
  68 TORSION   5  1  2 12               1.9739817     113.1008222
  69 TORSION   5  1  2 13              -2.0148844    -115.4443705
  70 TORSION   5  4  3 10              -2.0819164    -119.2850218
  71 TORSION   6  5  1 15               0.0233668       1.3388207
  72 TORSION   6  5  1 14               2.3424958     134.2151220
  73 TORSION   6  5  4  8              -0.1404563      -8.0475508
  74 TORSION   6  5  4  9              -2.4414892    -139.8870262
  75 TORSION   7  5  1 15              -2.4425724    -139.9490911
  76 TORSION   7  5  4  8               2.3703312     135.8099730
  77 TORSION   7  5  4  9               0.0692983       3.9704975
  78 TORSION   7  5  1 14              -0.1234435      -7.0727898
  79 TORSION   8  4  3 10              -0.0720185      -4.1263546
  80 TORSION   8  4  3 11              -2.4325588    -139.3753525
  81 TORSION   9  4  3 10               2.3482000     134.5419510
  82 TORSION   9  4  3 11              -0.0123403      -0.7070469
  83 TORSION  10  3  2 13              -2.3222310    -133.0540357
  84 TORSION  10  3  2 12               0.0337788       1.9353817
  85 TORSION  11  3  2 13               0.0238611       1.3671420
  86 TORSION  11  3  2 12               2.3798709     136.3565594
  87 TORSION  12  2  1 15               0.0948250       5.4330751
  88 TORSION  12  2  1 14              -2.2993279    -131.7417872
  89 TORSION  13  2  1 14              -0.0050087      -0.2869798
  90 TORSION  13  2  1 15               2.3891443     136.8878824

     ------------------------------------------
     THE POINT GROUP IS C1 , NAXIS= 0, ORDER= 1
     ------------------------------------------

 -- VARIATIONAL SPACE WILL BE RESTRICTED TO PURE SPHERICAL HARMONICS ONLY --
 AFTER EXCLUDING CONTAMINANT COMBINATIONS FROM THE CARTESIAN GAUSSIAN BASIS
 SET, THE NUMBER OF SPHERICAL HARMONICS KEPT IN THE VARIATION SPACE IS   65

     DIMENSIONS OF THE SYMMETRY SUBSPACES ARE
 A   =   65

 ..... DONE SETTING UP THE RUN .....
 STEP CPU TIME =     0.04 TOTAL CPU TIME =          0.0 (      0.0 MIN)
 TOTAL WALL CLOCK TIME=          0.0 SECONDS, CPU UTILIZATION IS   100.00%


          -----------------------------
          STATIONARY POINT LOCATION RUN
          -----------------------------

 OBTAINING INITIAL HESSIAN, HESS=GUESS   
 DIAGONAL GUESS HESSIAN IN INTERNAL COORDS IS
     1  0.5153     2  0.3881     3  0.3833     4  0.5167     5  0.3775
     6  0.3821     7  0.5318     8  0.4929     9  0.3740    10  0.3823
    11  0.5690    12  0.3947    13  0.3807    14  0.3695    15  0.3765
    16  0.2371    17  0.2377    18  0.2381    19  0.2763    20  0.2793
    21  0.2377    22  0.2751    23  0.2382    24  0.2392    25  0.2744
    26  0.2387    27  0.2385    28  0.2388    29  0.2392    30  0.2365
    31  0.2377    32  0.2773    33  0.2410    34  0.2404    35  0.2366
    36  0.2359    37  0.2414    38  0.2426    39  0.2383    40  0.2387
    41  0.2073    42  0.2094    43  0.2080    44  0.2083    45  0.2091
    46  0.2500    47  0.2500    48  0.2500    49  0.2500    50  0.2500
    51  0.2500    52  0.2500    53  0.2500    54  0.2500    55  0.2500
    56  0.2500    57  0.2500    58  0.2500    59  0.2500    60  0.2500
    61  0.2500    62  0.2500    63  0.2500    64  0.2500    65  0.2500
    66  0.2500    67  0.2500    68  0.2500    69  0.2500    70  0.2500
    71  0.2500    72  0.2500    73  0.2500    74  0.2500    75  0.2500
    76  0.2500    77  0.2500    78  0.2500    79  0.2500    80  0.2500
    81  0.2500    82  0.2500    83  0.2500    84  0.2500    85  0.2500
    86  0.2500    87  0.2500    88  0.2500    89  0.2500    90  0.2500
 TRANSFORMING HESSIAN TO SYMMETRY COORDINATES

          PARAMETERS CONTROLLING GEOMETRY SEARCH ARE
          METHOD =QA                  UPHESS =BFGS    
          NNEG   =         0          NFRZ   =         0
          NSTEP  =        50          IFOLOW =         1
          HESS   =GUESS               RESTAR =         F
          IHREP  =         0          HSSEND =         F
          NPRT   =         0          NPUN   =         0
          OPTTOL = 1.000E-04          RMIN   = 1.500E-03
          RMAX   = 1.000E-01          RLIM   = 7.000E-02
          DXMAX  = 3.000E-01          PURIFY =         F
          MOVIE  =         F          TRUPD  =         T
          TRMAX  = 5.000E-01          TRMIN  = 5.000E-02
          ITBMAT =         5          STPT   =         F
          STSTEP = 1.000E-02          PROJCT=          T

 BEGINNING GEOMETRY SEARCH POINT NSERCH=   0 ...

 COORDINATES OF ALL ATOMS ARE (ANGS)
   ATOM   CHARGE       X              Y              Z
 ------------------------------------------------------------
 C           6.0   0.1174399941  -1.1095821172   0.0091132436
 C           6.0  -1.0698926156  -0.4563061073  -0.0257045235
 C           6.0  -0.7824883945   0.8502754435   0.0395944899
 C           6.0   0.5900388683   0.9521077873  -0.0378021892
 C           6.0   1.1447227312  -0.2272050988   0.0221903476
 H           1.0   1.4883445082  -0.4362990842  -0.9445917069
 H           1.0   1.5964326381  -0.2264483257   0.9774962142
 H           1.0   0.8049214703   1.3287927267  -0.9845233005
 H           1.0   0.9343297192   1.3143403663   0.8545519865
 H           1.0  -1.0879799118   1.2616358501  -0.8645682873
 H           1.0  -1.1174223964   1.1554202234   0.9873635430
 H           1.0  -1.4787002803  -0.6827031492  -0.9612180993
 H           1.0  -1.5397704051  -0.6899205455   0.8715550440
 H           1.0   0.1572538919  -1.6110968577   0.9096095042
 H           1.0   0.2447270478  -1.5243345439  -0.9336826583


                     --------------------
                     INTERNAL COORDINATES
                     --------------------

                 - - ATOMS - -         COORDINATE      COORDINATE
 NO.   TYPE    I  J  K  L  M  N        (BOHR,RAD)       (ANG,DEG)
 ----------------------------------------------------------------
   1 STRETCH   1  2                     2.5617747       1.3556329
   2 STRETCH   1 14                     1.9492555       1.0315017
   3 STRETCH   1 15                     1.9612094       1.0378274
   4 STRETCH   1  5                     2.5592151       1.3542784
   5 STRETCH   2 12                     1.9761556       1.0457366
   6 STRETCH   2 13                     1.9642568       1.0394400
   7 STRETCH   2  3                     2.5311188       1.3394105
   8 STRETCH   3  4                     2.6049385       1.3784742
   9 STRETCH   3 11                     1.9851662       1.0505048
  10 STRETCH   3 10                     1.9639088       1.0392559
  11 STRETCH   4  5                     2.4653880       1.3046272
  12 STRETCH   4  9                     1.9327422       1.0227632
  13 STRETCH   4  8                     1.9678091       1.0413198
  14 STRETCH   5  7                     1.9969064       1.0567174
  15 STRETCH   5  6                     1.9787730       1.0471217
  16 BEND      1  5  7                  1.9107550     109.4781985
  17 BEND      1  5  6                  1.6809228      96.3097837
  18 BEND      1  2 13                  1.8394674     105.3937182
  19 BEND      1  2  3                  1.8555261     106.3138129
  20 BEND      1  5  4                  1.8400495     105.4270719
  21 BEND      1  2 12                  1.8348986     105.1319483
  22 BEND      2  1  5                  1.9290533     110.5266107
  23 BEND      2  1 15                  1.8511258     106.0616968
  24 BEND      2  3 10                  1.8552477     106.2978605
  25 BEND      2  3  4                  1.8576906     106.4378295
  26 BEND      2  1 14                  1.8655726     106.8894379
  27 BEND      2  3 11                  1.8327063     105.0063359
  28 BEND      3  2 12                  1.9163162     109.7968320
  29 BEND      3  2 13                  1.8485090     105.9117627
  30 BEND      3  4  8                  1.8579614     106.4533451
  31 BEND      3  4  9                  1.8884642     108.2010304
  32 BEND      3  4  5                  1.9326121     110.7305164
  33 BEND      4  5  6                  1.8520599     106.1152130
  34 BEND      4  5  7                  1.7953466     102.8657806
  35 BEND      4  3 10                  1.7870737     102.3917821
  36 BEND      4  3 11                  1.9247972     110.2827579
  37 BEND      5  4  8                  1.8556979     106.3236584
  38 BEND      5  4  9                  1.7081346      97.8689062
  39 BEND      5  1 15                  1.7478393     100.1438137
  40 BEND      5  1 14                  1.8536255     106.2049164
  41 BEND      6  5  7                  2.3385726     133.9903429
  42 BEND      8  4  9                  2.2088704     126.5589535
  43 BEND     10  3 11                  2.1849027     125.1857061
  44 BEND     12  2 13                  2.1493979     123.1514280
  45 BEND     14  1 15                  2.2068446     126.4428841
  46 TORSION   1  2  3 10               2.0100252     115.1659625
  47 TORSION   1  2  3 11              -1.9270679    -110.4128598
  48 TORSION   1  2  3  4               0.1141651       6.5411796
  49 TORSION   1  5  4  8              -1.9109826    -109.4912356
  50 TORSION   1  5  4  9               2.0711698     118.6692889
  51 TORSION   1  5  4  3               0.1003300       5.7484875
  52 TORSION   2  1  5  7               1.8939172     108.5134607
  53 TORSION   2  3  4  8               1.8717575     107.2438035
  54 TORSION   2  3  4  9              -1.9912093    -114.0878909
  55 TORSION   2  3  4  5              -0.1381404      -7.9148638
  56 TORSION   2  1  5  6              -1.9233289    -110.1986275
  57 TORSION   2  1  5  4              -0.0265785      -1.5228383
  58 TORSION   3  2  1  5              -0.0576722      -3.3043733
  59 TORSION   3  2  1 15              -1.9368289    -110.9721204
  60 TORSION   3  2  1 14               1.9522034     111.8530173
  61 TORSION   3  4  5  6               1.8708563     107.1921724
  62 TORSION   3  4  5  7              -1.9015415    -108.9503039
  63 TORSION   4  3  2 13               2.0650942     118.3211814
  64 TORSION   4  3  2 12              -1.8620813    -106.6894012
  65 TORSION   4  5  1 15               1.9201172     110.0146099
  66 TORSION   4  5  1 14              -2.0439392    -117.1090888
  67 TORSION   5  4  3 11               1.8407286     105.4659803
  68 TORSION   5  1  2 12               1.9739817     113.1008222
  69 TORSION   5  1  2 13              -2.0148844    -115.4443705
  70 TORSION   5  4  3 10              -2.0819164    -119.2850218
  71 TORSION   6  5  1 15               0.0233668       1.3388207
  72 TORSION   6  5  1 14               2.3424958     134.2151220
  73 TORSION   6  5  4  8              -0.1404563      -8.0475508
  74 TORSION   6  5  4  9              -2.4414892    -139.8870262
  75 TORSION   7  5  1 15              -2.4425724    -139.9490911
  76 TORSION   7  5  4  8               2.3703312     135.8099730
  77 TORSION   7  5  4  9               0.0692983       3.9704975
  78 TORSION   7  5  1 14              -0.1234435      -7.0727898
  79 TORSION   8  4  3 10              -0.0720185      -4.1263546
  80 TORSION   8  4  3 11              -2.4325588    -139.3753525
  81 TORSION   9  4  3 10               2.3482000     134.5419510
  82 TORSION   9  4  3 11              -0.0123403      -0.7070469
  83 TORSION  10  3  2 13              -2.3222310    -133.0540357
  84 TORSION  10  3  2 12               0.0337788       1.9353817
  85 TORSION  11  3  2 13               0.0238611       1.3671420
  86 TORSION  11  3  2 12               2.3798709     136.3565594
  87 TORSION  12  2  1 15               0.0948250       5.4330751
  88 TORSION  12  2  1 14              -2.2993279    -131.7417872
  89 TORSION  13  2  1 14              -0.0050087      -0.2869798
  90 TORSION  13  2  1 15               2.3891443     136.8878824

          ********************
          1 ELECTRON INTEGRALS
          ********************
 ...... END OF ONE-ELECTRON INTEGRALS ......
 STEP CPU TIME =     0.00 TOTAL CPU TIME =          0.0 (      0.0 MIN)
 TOTAL WALL CLOCK TIME=          0.0 SECONDS, CPU UTILIZATION IS    80.00%

          -------------
          GUESS OPTIONS
          -------------
          GUESS =HUCKEL            NORB  =       0          NORDER=       0
          MIX   =       F          PRTMO =       F          PUNMO =       F
          TOLZ  = 1.0E-08          TOLE  = 1.0E-05
          SYMDEN=       F          PURIFY=       F

 INITIAL GUESS ORBITALS GENERATED BY HUCKEL   ROUTINE.
 HUCKEL GUESS REQUIRES     46350 WORDS.

 SYMMETRIES FOR INITIAL GUESS ORBITALS FOLLOW.   BOTH SET(S).
    20 ORBITALS ARE OCCUPIED (    5 CORE ORBITALS).
     6=A        7=A        8=A        9=A       10=A       11=A       12=A   
    13=A       14=A       15=A       16=A       17=A       18=A       19=A   
    20=A       21=A       22=A       23=A       24=A       25=A       26=A   
    27=A       28=A       29=A       30=A   
 ...... END OF INITIAL ORBITAL SELECTION ......
 STEP CPU TIME =     0.01 TOTAL CPU TIME =          0.0 (      0.0 MIN)
 TOTAL WALL CLOCK TIME=          0.1 SECONDS, CPU UTILIZATION IS    83.33%

                    ----------------------
                    AO INTEGRAL TECHNOLOGY
                    ----------------------
     S,P,L SHELL ROTATED AXIS INTEGRALS, REPROGRAMMED BY
        KAZUYA ISHIMURA (IMS) AND JOSE SIERRA (SYNSTAR).
     S,P,D,L SHELL ROTATED AXIS INTEGRALS PROGRAMMED BY
        KAZUYA ISHIMURA (INSTITUTE FOR MOLECULAR SCIENCE).
     S,P,D,F,G SHELL TO TOTAL QUARTET ANGULAR MOMENTUM SUM 5,
        ERIC PROGRAM BY GRAHAM FLETCHER (ELORET AND NASA ADVANCED
        SUPERCOMPUTING DIVISION, AMES RESEARCH CENTER).
     S,P,D,F,G,L SHELL GENERAL RYS QUADRATURE PROGRAMMED BY
        MICHEL DUPUIS (PACIFIC NORTHWEST NATIONAL LABORATORY).

          --------------------
          2 ELECTRON INTEGRALS
          --------------------

 THE -PK- OPTION IS OFF, THE INTEGRALS ARE NOT IN SUPERMATRIX FORM.
 STORING   15000 INTEGRALS/RECORD ON DISK, USING 12 BYTES/INTEGRAL.
 TWO ELECTRON INTEGRAL EVALUATION REQUIRES   90391 WORDS OF MEMORY.
 SCHWARZ INEQUALITY OVERHEAD:      2145 INTEGRALS, T=        0.00
 II,JST,KST,LST =  1  1  1  1 NREC =         1 INTLOC =    1
 II,JST,KST,LST =  2  1  1  1 NREC =         1 INTLOC =    2
 II,JST,KST,LST =  3  1  1  1 NREC =         1 INTLOC =    7
 II,JST,KST,LST =  4  1  1  1 NREC =         1 INTLOC =   22
 II,JST,KST,LST =  5  1  1  1 NREC =         1 INTLOC =   67
 II,JST,KST,LST =  6  1  1  1 NREC =         1 INTLOC =  214
 II,JST,KST,LST =  7  1  1  1 NREC =         1 INTLOC =  707
 II,JST,KST,LST =  8  1  1  1 NREC =         1 INTLOC = 1378
 II,JST,KST,LST =  9  1  1  1 NREC =         1 INTLOC = 2248
 II,JST,KST,LST = 10  1  1  1 NREC =         1 INTLOC = 6259
 II,JST,KST,LST = 11  1  1  1 NREC =         1 INTLOC =13040
 II,JST,KST,LST = 12  1  1  1 NREC =         2 INTLOC = 1203
 II,JST,KST,LST = 13  1  1  1 NREC =         2 INTLOC = 5182
 II,JST,KST,LST = 14  1  1  1 NREC =         2 INTLOC = 9797
 II,JST,KST,LST = 15  1  1  1 NREC =         3 INTLOC =12776
 II,JST,KST,LST = 16  1  1  1 NREC =         5 INTLOC = 8471
 II,JST,KST,LST = 17  1  1  1 NREC =         6 INTLOC = 3059
 II,JST,KST,LST = 18  1  1  1 NREC =         7 INTLOC =  113
 II,JST,KST,LST = 19  1  1  1 NREC =         7 INTLOC =13512
 II,JST,KST,LST = 20  1  1  1 NREC =        11 INTLOC = 1539
 II,JST,KST,LST = 21  1  1  1 NREC =        15 INTLOC = 4824
 II,JST,KST,LST = 22  1  1  1 NREC =        16 INTLOC =12141
 II,JST,KST,LST = 23  1  1  1 NREC =        18 INTLOC = 9251
 II,JST,KST,LST = 24  1  1  1 NREC =        20 INTLOC = 8672
 II,JST,KST,LST = 25  1  1  1 NREC =        27 INTLOC = 4418
 II,JST,KST,LST = 26  1  1  1 NREC =        35 INTLOC =10426
 II,JST,KST,LST = 27  1  1  1 NREC =        38 INTLOC =12273
 II,JST,KST,LST = 28  1  1  1 NREC =        42 INTLOC = 3818
 II,JST,KST,LST = 29  1  1  1 NREC =        45 INTLOC =11745
 II,JST,KST,LST = 30  1  1  1 NREC =        49 INTLOC =10134
 II,JST,KST,LST = 31  1  1  1 NREC =        53 INTLOC =10465
 II,JST,KST,LST = 32  1  1  1 NREC =        58 INTLOC = 1324
 II,JST,KST,LST = 33  1  1  1 NREC =        62 INTLOC = 9190
 II,JST,KST,LST = 34  1  1  1 NREC =        67 INTLOC = 8102
 II,JST,KST,LST = 35  1  1  1 NREC =        72 INTLOC = 8240
 II,JST,KST,LST = 36  1  1  1 NREC =        78 INTLOC =  787
 II,JST,KST,LST = 37  1  1  1 NREC =        83 INTLOC = 9724
 II,JST,KST,LST = 38  1  1  1 NREC =        89 INTLOC =11606
 II,JST,KST,LST = 39  1  1  1 NREC =        95 INTLOC =13886
 II,JST,KST,LST = 40  1  1  1 NREC =       102 INTLOC =10716
 II,JST,KST,LST = 41  1  1  1 NREC =       109 INTLOC = 7884
 II,JST,KST,LST = 42  1  1  1 NREC =       117 INTLOC =  373
 II,JST,KST,LST = 43  1  1  1 NREC =       124 INTLOC = 8924
 II,JST,KST,LST = 44  1  1  1 NREC =       132 INTLOC =12932
 II,JST,KST,LST = 45  1  1  1 NREC =       141 INTLOC = 3884
 SCHWARZ INEQUALITY TEST SKIPPED       12957 INTEGRAL BLOCKS.
 TOTAL NUMBER OF NONZERO TWO-ELECTRON INTEGRALS =             2240158
        150 INTEGRAL RECORDS WERE STORED ON DISK FILE  8.
  ...... END OF TWO-ELECTRON INTEGRALS .....
 STEP CPU TIME =     0.41 TOTAL CPU TIME =          0.5 (      0.0 MIN)
 TOTAL WALL CLOCK TIME=          0.5 SECONDS, CPU UTILIZATION IS    95.83%

          --------------------------
               R-PBE SCF CALCULATION
          --------------------------

     NUCLEAR ENERGY =       210.6776278285
     MAXIT =   30     NPUNCH=    2
     EXTRAP=T  DAMP=F  SHIFT=F  RSTRCT=F  DIIS=T  DEM=F  SOSCF=F
         DENSITY MATRIX CONVERGENCE THRESHOLD=  1.00E-05
     COARSE -> FINE DFT GRID SWITCH THRESHOLD=  3.00E-04 (SWITCH IN $DFT)
                   HF -> DFT SWITCH THRESHOLD=  5.00E-03 (SWOFF IN $DFT)
     MEMORY REQUIRED FOR RHF ITERS=    561252 WORDS.

 DFT CODE IS SWITCHING FROM THE FINE GRID NRAD= 96,  NLEB=  302
                      TO THE COARSE GRID NRAD0= 24, NLEB0=  110

     EXCHANGE FUNCTIONAL   =PBE       
     CORRELATION FUNCTIONAL=PBE       
     DFT THRESHOLD         =.920E-08
     GRID CHANGE THRESHOLD =.300E-03
 FOR AN EULER-MACLAURIN QUADRATURE USING  96 RADIAL POINTS:
 SMALLEST GAUSSIAN PRIMITIVE EXPONENT=        0.1366870000 OF TYPE -S-
 ON ATOM NUMBER   6 HAS RADIAL NORMALIZATION=  1.000000
  LARGEST GAUSSIAN PRIMITIVE EXPONENT=      471.5250000000 OF TYPE -S-
 ON ATOM NUMBER   1 HAS RADIAL NORMALIZATION=  1.000000
 DFT IS SWITCHED OFF, PERFORMING PURE SCF UNTIL SWOFF THRESHOLD IS REACHED.

 ITER EX DEM     TOTAL ENERGY        E CHANGE  DENSITY CHANGE    DIIS ERROR
   1  0  0     -193.9088769311  -193.9088769311   1.036204649   0.582620993
          * * *   INITIATING DIIS PROCEDURE   * * *
   2  1  0     -194.2364022143    -0.3275252832   0.198891770   0.080241481
   3  2  0     -194.2618242026    -0.0254219883   0.091720711   0.041413604
   4  3  0     -194.2674215133    -0.0055973107   0.037638779   0.005811078
   5  4  0     -194.2676813100    -0.0002597967   0.001496417   0.000748709
 CONVERGED TO SWOFF, SO DFT CALCULATION IS NOW SWITCHED ON.
          * * *   INITIATING DIIS PROCEDURE   * * *
   6  5  0     -195.4337100672    -1.1660287572   0.659596731   0.098147501
   7  6  0     -195.4411110516    -0.0074009844   0.042220946   0.041512611
   8  7  0     -195.4425630531    -0.0014520015   0.028830915   0.034827944
   9  8  0     -195.4463467543    -0.0037837012   0.005025814   0.000460175
  10  9  0     -195.4463480909    -0.0000013367   0.000301245   0.000155804
  11 10  0     -195.4463482290    -0.0000001381   0.000205536   0.000027665
 DFT CODE IS SWITCHING BACK TO THE FINE GRID
          * * *   INITIATING DIIS PROCEDURE   * * *
  12 11  0     -195.4437747928     0.0025734362   0.013306528   0.001369376
  13 12  0     -195.4437892638    -0.0000144710   0.000669322   0.000195550
  14 13  0     -195.4437891620     0.0000001017   0.000370289   0.000255076
  15 14  0     -195.4437895013    -0.0000003393   0.000041617   0.000019930
  16 15  0     -195.4437895028    -0.0000000015   0.000010638   0.000006553
  17 16  0     -195.4437895031    -0.0000000003   0.000002087   0.000001079
  18 17  0     -195.4437895031    -0.0000000000   0.000000997   0.000000242

          -----------------
          DENSITY CONVERGED
          -----------------
     TIME TO FORM FOCK OPERATORS=      15.0 SECONDS (       0.8 SEC/ITER)
     TIME TO SOLVE SCF EQUATIONS=       0.0 SECONDS (       0.0 SEC/ITER)

 FINAL R-PBE ENERGY IS     -195.4437895031 AFTER  18 ITERATIONS
 DFT EXCHANGE + CORRELATION ENERGY =       -31.2107531751
 TOTAL ELECTRON NUMBER             =        40.0006479289

          ------------
          EIGENVECTORS
          ------------

                      1          2          3          4          5
                   -9.8414    -9.8402    -9.8393    -9.8381    -9.8353
                     A          A          A          A          A   
    1  C  1  S    0.015860   0.127776   0.187259   0.956446   0.007351
    2  C  1  S   -0.000104   0.005883   0.010060   0.066786  -0.000143
    3  C  1  S    0.005190   0.021640   0.015263  -0.107800   0.000907
    4  C  1  X   -0.000041  -0.001670   0.002163  -0.000143   0.000506
    5  C  1  Y   -0.000018  -0.001194  -0.000710   0.001837   0.000353
    6  C  1  Z   -0.000071  -0.000066   0.000040  -0.000125   0.000020
    7  C  1  X    0.000139   0.005909  -0.007914   0.001811  -0.001402
    8  C  1  Y    0.001933   0.005401   0.003629  -0.011975   0.001691
    9  C  1  Z    0.000910   0.000652  -0.000029   0.000351  -0.000197
   10  C  2  S    0.146654   0.040794   0.951833  -0.193333  -0.000715
   11  C  2  S    0.006859   0.001989   0.065305  -0.016257  -0.000367
   12  C  2  S    0.020832  -0.006214  -0.098662   0.053856  -0.004912
   13  C  2  X   -0.000255   0.000076   0.000999  -0.002261   0.000037
   14  C  2  Y   -0.002166   0.000090   0.001151   0.001064   0.000463
   15  C  2  Z   -0.000068   0.000057   0.000147  -0.000102   0.000100
   16  C  2  X    0.001505   0.000052  -0.009220   0.010785  -0.000464
   17  C  2  Y    0.009125  -0.001145  -0.006139  -0.002528  -0.000390
   18  C  2  Z   -0.000529  -0.001227  -0.001051   0.000285  -0.001243
   19  C  3  S    0.971359  -0.037687  -0.143734   0.017198  -0.026647
   20  C  3  S    0.066200  -0.003872  -0.012751   0.001480  -0.004649
   21  C  3  S   -0.097707   0.010828   0.045258  -0.013187   0.033202
   22  C  3  X    0.000842   0.000109   0.000456  -0.000197  -0.002302
   23  C  3  Y   -0.000949   0.000199   0.002396  -0.000869  -0.000269
   24  C  3  Z   -0.000227  -0.000105   0.000147  -0.000099   0.000085
   25  C  3  X   -0.007633   0.001523  -0.000856  -0.000032   0.009053
   26  C  3  Y    0.008079  -0.002474  -0.010735   0.002714  -0.000312
   27  C  3  Z    0.002022   0.001605  -0.000391   0.001027   0.000655
   28  C  4  S    0.029908   0.090467  -0.011467  -0.017915   0.978185
   29  C  4  S   -0.001350   0.003663  -0.000993  -0.001732   0.067736
   30  C  4  S    0.035746   0.019514  -0.003462   0.002755  -0.102157
   31  C  4  X    0.002080  -0.001310  -0.000525   0.000420  -0.000173
   32  C  4  Y    0.000161   0.001899  -0.000187  -0.000555  -0.001872
   33  C  4  Z   -0.000136  -0.000032   0.000097   0.000053   0.000295
   34  C  4  X   -0.009324   0.004483   0.001098  -0.001955   0.003841
   35  C  4  Y   -0.003132  -0.006989  -0.001066  -0.000759   0.009937
   36  C  4  Z    0.000406  -0.001194  -0.000715  -0.000882  -0.002033
   37  C  5  S    0.026788   0.969132  -0.069127  -0.114803  -0.092720
   38  C  5  S    0.001318   0.065631  -0.005465  -0.010224  -0.008964
   39  C  5  S   -0.009334  -0.090153   0.005906   0.038806   0.038616
   40  C  5  X   -0.000149  -0.001646   0.000271   0.001895   0.001197
   41  C  5  Y    0.000224   0.000573  -0.000007   0.001478  -0.002256
   42  C  5  Z   -0.000054  -0.000193   0.000025  -0.000038   0.000134
   43  C  5  X    0.001311   0.010612  -0.000886  -0.007879  -0.004658
   44  C  5  Y   -0.000888  -0.002042  -0.000567  -0.005769   0.008140
   45  C  5  Z    0.000338   0.001542  -0.000029   0.001095  -0.000162
   46  H  6  S   -0.000240  -0.001644   0.000080   0.001439   0.000980
   47  H  6  S    0.001154   0.017605  -0.001334  -0.005209  -0.004403
   48  H  7  S   -0.000335  -0.002078   0.000100   0.000527   0.001081
   49  H  7  S    0.000834   0.016501  -0.001265  -0.005022  -0.005815
   50  H  8  S    0.000309   0.000178  -0.000638  -0.000511  -0.002213
   51  H  8  S   -0.003828  -0.001504  -0.000120  -0.000804   0.018206
   52  H  9  S    0.000187   0.000864  -0.000334  -0.000281  -0.001972
   53  H  9  S   -0.002720  -0.001192   0.000159  -0.000109   0.019531
   54  H 10  S   -0.001476   0.000149   0.000755  -0.000185   0.000801
   55  H 10  S    0.018258  -0.001278  -0.005118   0.001297  -0.002963
   56  H 11  S   -0.001848  -0.000594   0.000804  -0.000545   0.000246
   57  H 11  S    0.017359  -0.002090  -0.005735   0.000990  -0.003609
   58  H 12  S   -0.000034  -0.000461  -0.001752   0.000881  -0.000459
   59  H 12  S   -0.001126   0.000483   0.017594  -0.006894  -0.000114
   60  H 13  S    0.000347  -0.000039  -0.001672   0.000874   0.000039
   61  H 13  S   -0.000738   0.000885   0.018049  -0.006724   0.000642
   62  H 14  S   -0.000455   0.000061   0.000053  -0.002126  -0.000372
   63  H 14  S   -0.000786  -0.000763  -0.000023   0.018962  -0.000020
   64  H 15  S   -0.000100   0.000619   0.000122  -0.001918  -0.000562
   65  H 15  S   -0.000369  -0.002259   0.000276   0.019523   0.000112

                      6          7          8          9         10
                   -0.8870    -0.7121    -0.6914    -0.5547    -0.5145
                     A          A          A          A          A   
    1  C  1  S   -0.130182  -0.006595  -0.181833   0.006180  -0.053523
    2  C  1  S    0.202113   0.009759   0.301834  -0.005942   0.093664
    3  C  1  S    0.077655   0.037311   0.210295  -0.083039   0.172112
    4  C  1  X   -0.002341  -0.107939   0.004797  -0.043933   0.186629
    5  C  1  Y    0.074144  -0.007383   0.014820  -0.001244  -0.001968
    6  C  1  Z   -0.003459   0.003592  -0.009517   0.159731   0.047534
    7  C  1  X   -0.003952  -0.051678  -0.000716  -0.019965   0.104611
    8  C  1  Y    0.040465   0.006245   0.041220  -0.027650   0.026071
    9  C  1  Z   -0.012877   0.006439  -0.012274   0.138167   0.037641
   10  C  2  S   -0.122188  -0.173692  -0.049746  -0.030782   0.120837
   11  C  2  S    0.192212   0.289560   0.083655   0.051736  -0.215664
   12  C  2  S    0.060234   0.159788   0.045256   0.145380  -0.370404
   13  C  2  X    0.066818   0.016017   0.046716  -0.007141   0.013313
   14  C  2  Y    0.029875   0.044298  -0.095050  -0.021421   0.112691
   15  C  2  Z    0.002846   0.007958  -0.001605   0.138216   0.056470
   16  C  2  X    0.031465   0.026110   0.026717   0.023331  -0.039704
   17  C  2  Y    0.013329   0.031156  -0.046261   0.001229   0.034810
   18  C  2  Z    0.010189   0.003388   0.000067   0.121393   0.053853
   19  C  3  S   -0.120129  -0.117869   0.141780   0.027440  -0.126128
   20  C  3  S    0.188324   0.195861  -0.237688  -0.046593   0.224181
   21  C  3  S    0.075468   0.116706  -0.142721  -0.120344   0.383870
   22  C  3  X    0.045594  -0.047447  -0.053374  -0.013722  -0.000775
   23  C  3  Y   -0.056427  -0.072769  -0.022025  -0.026952   0.056286
   24  C  3  Z   -0.005002  -0.004516   0.007929   0.139864   0.043570
   25  C  3  X    0.023445  -0.015435  -0.038655  -0.020952   0.032415
   26  C  3  Y   -0.029122  -0.050068   0.003290   0.005874  -0.022958
   27  C  3  Z   -0.010514   0.000995   0.006497   0.117296   0.031560
   28  C  4  S   -0.133571   0.102433   0.146574  -0.003995   0.082056
   29  C  4  S    0.207685  -0.169452  -0.243805   0.006183  -0.146104
   30  C  4  S    0.066923  -0.076322  -0.184794   0.045573  -0.274260
   31  C  4  X   -0.026489  -0.084622   0.049093   0.053835  -0.152363
   32  C  4  Y   -0.071782   0.061157  -0.013251  -0.014879   0.032643
   33  C  4  Z    0.005950  -0.009558  -0.010041   0.168325   0.028970
   34  C  4  X   -0.016753  -0.034411   0.038476   0.026238  -0.074567
   35  C  4  Y   -0.034052   0.034350   0.022703  -0.016773   0.059609
   36  C  4  Z    0.008010  -0.011308  -0.003206   0.147790   0.023922
   37  C  5  S   -0.137167   0.164921  -0.047277  -0.009826  -0.020574
   38  C  5  S    0.210812  -0.272538   0.079314   0.017679   0.035066
   39  C  5  S    0.104494  -0.208860   0.067632   0.026410   0.089613
   40  C  5  X   -0.078223   0.022326  -0.030270   0.013548  -0.042195
   41  C  5  Y    0.021653  -0.047983  -0.112552   0.054543  -0.197102
   42  C  5  Z   -0.005370   0.004879  -0.013274   0.181235   0.026755
   43  C  5  X   -0.045225   0.048062  -0.028148   0.005458  -0.040212
   44  C  5  Y    0.011910  -0.031523  -0.052693   0.032937  -0.098867
   45  C  5  Z   -0.005450   0.005092  -0.018028   0.172491   0.012883
   46  H  6  S    0.043351  -0.076649   0.038893  -0.102002   0.013645
   47  H  6  S   -0.005383  -0.001291  -0.001261  -0.004967  -0.005260
   48  H  7  S    0.038561  -0.076458   0.012394   0.104230   0.017190
   49  H  7  S   -0.001326  -0.005129   0.003464   0.004293  -0.000593
   50  H  8  S    0.038239  -0.045527  -0.068160  -0.084259  -0.082779
   51  H  8  S    0.004312  -0.008073  -0.003432  -0.008253  -0.002722
   52  H  9  S    0.041467  -0.061391  -0.076246   0.102649  -0.065151
   53  H  9  S    0.000425  -0.004180  -0.003468   0.001782  -0.002395
   54  H 10  S    0.033325   0.053399  -0.073436  -0.093449   0.073241
   55  H 10  S   -0.001931   0.003812  -0.005315  -0.001451   0.001466
   56  H 11  S    0.033555   0.053257  -0.063915   0.054352   0.119257
   57  H 11  S    0.002823   0.003341  -0.007723   0.009004   0.010773
   58  H 12  S    0.034728   0.074825   0.028011  -0.048541  -0.130545
   59  H 12  S    0.005411   0.007846   0.003036  -0.008565  -0.009218
   60  H 13  S    0.033072   0.081770   0.025113   0.093188  -0.070458
   61  H 13  S   -0.000079   0.007555   0.002397  -0.001141  -0.004694
   62  H 14  S    0.037416   0.003676   0.088160   0.077636   0.067010
   63  H 14  S    0.005256  -0.003710   0.008512   0.007841   0.003597
   64  H 15  S    0.039292  -0.004648   0.096494  -0.097434   0.022305
   65  H 15  S   -0.003101  -0.002752   0.004969  -0.004468  -0.002043

                     11         12         13         14         15
                   -0.4975    -0.4580    -0.4404    -0.4277    -0.3065
                     A          A          A          A          A   
    1  C  1  S    0.110358   0.027928   0.004958   0.004129  -0.058797
    2  C  1  S   -0.196925  -0.066807  -0.007535  -0.003863   0.129164
    3  C  1  S   -0.376688   0.025456  -0.062714  -0.067037  -0.134846
    4  C  1  X    0.099726  -0.026796  -0.016409   0.008948  -0.123989
    5  C  1  Y    0.052342   0.190171  -0.009861   0.006436  -0.104277
    6  C  1  Z   -0.030063  -0.001841   0.027951   0.235106  -0.002684
    7  C  1  X    0.058848  -0.030896  -0.015783  -0.004841  -0.074485
    8  C  1  Y   -0.031593   0.173663  -0.019909  -0.016375  -0.192352
    9  C  1  Z   -0.031023  -0.004219   0.035583   0.268110   0.001749
   10  C  2  S   -0.060325   0.006724  -0.002485  -0.005768   0.045618
   11  C  2  S    0.108359  -0.015458   0.003888   0.010886  -0.106616
   12  C  2  S    0.193075  -0.089802   0.043764   0.024742   0.223737
   13  C  2  X   -0.119298   0.159532  -0.015303  -0.010376   0.158964
   14  C  2  Y    0.157010   0.082028  -0.021931   0.020118   0.114175
   15  C  2  Z    0.000210   0.012297   0.233150   0.054723  -0.012704
   16  C  2  X   -0.042933   0.107001  -0.005211  -0.001004   0.260501
   17  C  2  Y    0.101211   0.070252  -0.010811   0.011297   0.162024
   18  C  2  Z    0.002255   0.012348   0.248445   0.050141  -0.015158
   19  C  3  S   -0.022312   0.025878   0.011973   0.009396  -0.036484
   20  C  3  S    0.040537  -0.054245  -0.021531  -0.019452   0.084172
   21  C  3  S    0.067983  -0.090986  -0.053175  -0.000474  -0.154919
   22  C  3  X   -0.180273   0.108752  -0.001279  -0.016010  -0.234980
   23  C  3  Y   -0.119486  -0.152909  -0.002430  -0.017609  -0.061554
   24  C  3  Z    0.013685   0.009392   0.152281  -0.195548   0.004239
   25  C  3  X   -0.096380   0.071973  -0.005004  -0.001444  -0.233228
   26  C  3  Y   -0.071214  -0.117481   0.003901  -0.011852   0.048800
   27  C  3  Z    0.015600   0.008642   0.162998  -0.206068   0.015440
   28  C  4  S    0.095135   0.018729  -0.026468   0.006562   0.016968
   29  C  4  S   -0.170461  -0.047992   0.049468  -0.013175  -0.034681
   30  C  4  S   -0.330834   0.030484   0.063263  -0.060112   0.005245
   31  C  4  X    0.116153  -0.081248   0.022397   0.002086   0.243969
   32  C  4  Y   -0.102095  -0.167792   0.007863  -0.018091  -0.113003
   33  C  4  Z   -0.005397   0.003123  -0.132709  -0.191272  -0.021243
   34  C  4  X    0.086886  -0.077555   0.008689  -0.001731   0.180657
   35  C  4  Y   -0.003252  -0.147319   0.009870  -0.001152  -0.091349
   36  C  4  Z   -0.004713   0.012431  -0.140121  -0.215509  -0.025648
   37  C  5  S   -0.129421   0.008213   0.010316  -0.022848   0.029319
   38  C  5  S    0.231562  -0.023923  -0.020187   0.041360  -0.063873
   39  C  5  S    0.452536  -0.087995   0.014568   0.119936   0.049952
   40  C  5  X    0.065252  -0.165602  -0.001396   0.004413  -0.000297
   41  C  5  Y    0.008222   0.047035   0.012726  -0.002751   0.226842
   42  C  5  Z   -0.029567  -0.011955  -0.202148   0.066106  -0.010488
   43  C  5  X   -0.041568  -0.102868  -0.015880  -0.012572  -0.054584
   44  C  5  Y    0.021667   0.025914  -0.006617   0.002486   0.182674
   45  C  5  Z   -0.036010  -0.021931  -0.234107   0.072230  -0.002938
   46  H  6  S    0.119301  -0.068446   0.120933  -0.040906  -0.064408
   47  H  6  S    0.007403  -0.038304   0.017912  -0.023343  -0.044127
   48  H  7  S    0.092058  -0.079740  -0.139844   0.055113  -0.051273
   49  H  7  S    0.009578  -0.030720  -0.031159   0.003756  -0.042881
   50  H  8  S   -0.070682  -0.085053   0.112456   0.117213   0.007267
[...]
   34  C  4  X   -0.225426  -0.229262   0.018604   0.405114  -0.692850
   35  C  4  Y   -0.203962  -0.162962  -0.261939  -0.716167   0.153225
   36  C  4  Z   -0.334323  -0.358244   0.014542  -0.233270   0.303929
   37  C  5  S   -0.043937  -0.052644  -0.065187   0.088636  -0.037743
   38  C  5  S    0.047096   0.075396   0.052610  -0.098054   0.067910
   39  C  5  S    0.880360   0.828649   1.579595  -1.803244   0.450972
   40  C  5  X    0.036161  -0.049266  -0.009309  -0.021785  -0.169016
   41  C  5  Y   -0.081372   0.024321  -0.107890  -0.142859  -0.091243
   42  C  5  Z   -0.168216   0.045995   0.138309   0.046628  -0.020582
   43  C  5  X    0.064653  -0.143273  -0.230722   0.108967  -0.614947
   44  C  5  Y   -0.299200   0.184747  -0.462866  -0.549836  -0.383775
   45  C  5  Z   -0.533886   0.108958   0.461045   0.230158  -0.074699
   46  H  6  S   -0.067824   0.014379   0.000438  -0.007244   0.099205
   47  H  6  S   -1.024943  -0.025642  -0.162600   0.658724   0.331291
   48  H  7  S    0.046734  -0.011087  -0.075441  -0.005386   0.040293
   49  H  7  S    0.423520  -0.464074  -1.132930   0.456499   0.114081
   50  H  8  S   -0.041887  -0.033055   0.034332  -0.027203   0.032552
   51  H  8  S   -0.411485  -0.043124   0.345619  -0.672921   0.024828
   52  H  9  S    0.063088   0.076824   0.055678   0.067339   0.059302
   53  H  9  S    0.727377   1.105784   0.598329   0.252780  -0.143855
   54  H 10  S    0.037967  -0.097613   0.052666   0.081053  -0.029280
   55  H 10  S    0.423304  -1.331588   0.424706   0.218761   0.139827
   56  H 11  S   -0.028170   0.043115   0.027419  -0.009463  -0.026802
   57  H 11  S   -0.283905   0.141014   0.167399  -0.539544  -0.141206
   58  H 12  S    0.052271   0.002062  -0.073378   0.013390  -0.042418
   59  H 12  S    0.545703   0.380654  -1.103813   0.460451   0.021739
   60  H 13  S   -0.078487   0.006439   0.009736   0.029500  -0.098277
   61  H 13  S   -1.058937   0.333392  -0.081978   0.752157  -0.078628
   62  H 14  S   -0.005580  -0.032977  -0.009871  -0.074803   0.021546
   63  H 14  S    0.202163  -0.631609   0.661458  -0.703462   0.168946
   64  H 15  S    0.011098   0.034248  -0.013550  -0.059335  -0.055143
   65  H 15  S    0.448521   0.503266   0.663689  -0.502726  -0.410512

     ---------------------------------------------------------------------
     PROPERTIES FOR THE PBE      DFT FUNCTIONAL (RHF  TYPE) DENSITY MATRIX
     ---------------------------------------------------------------------

          -----------------
          ENERGY COMPONENTS
          -----------------

         WAVEFUNCTION NORMALIZATION =       1.0000000000

                ONE ELECTRON ENERGY =    -627.1595188501
                TWO ELECTRON ENERGY =     246.8646413985
           NUCLEAR REPULSION ENERGY =     184.5060969827
                                      ------------------
                       TOTAL ENERGY =    -195.7887804689

 ELECTRON-ELECTRON POTENTIAL ENERGY =     246.8646413985
  NUCLEUS-ELECTRON POTENTIAL ENERGY =    -820.9745853523
   NUCLEUS-NUCLEUS POTENTIAL ENERGY =     184.5060969827
                                      ------------------
             TOTAL POTENTIAL ENERGY =    -389.6038469711
               TOTAL KINETIC ENERGY =     193.8150665022
                 VIRIAL RATIO (V/T) =       2.0101834909

          ---------------------------------------
          MULLIKEN AND LOWDIN POPULATION ANALYSES
          ---------------------------------------

     ATOMIC MULLIKEN POPULATION IN EACH MOLECULAR ORBITAL

                      1          2          3          4          5

                  2.000000   2.000000   2.000000   2.000000   2.000000

    1             0.119708   0.197989   0.003813   0.189823   1.484632
    2             0.014007   0.766253   0.550242   0.373899   0.290452
    3             0.112216   0.759214   0.001398   1.098445   0.023327
    4             0.826610   0.130601   0.695108   0.328865   0.013379
    5             0.922960   0.141434   0.744144   0.003554   0.182997
    6             0.001112   0.000194   0.000889  -0.000001   0.000203
    7             0.001068   0.000251   0.001072  -0.000003   0.000229
    8             0.000919   0.000106   0.001090   0.000479   0.000008
    9             0.000915   0.000142   0.000847   0.000437   0.000039
   10             0.000110   0.000823   0.000001   0.001384   0.000057
   11             0.000080   0.000832  -0.000005   0.001652   0.000027
   12             0.000038   0.000853   0.000795   0.000535   0.000405
   13             0.000024   0.000911   0.000603   0.000501   0.000349
   14             0.000123   0.000188   0.000002   0.000219   0.001961
   15             0.000112   0.000208   0.000002   0.000209   0.001934

                      6          7          8          9         10

                  2.000000   2.000000   2.000000   2.000000   2.000000

    1             0.326682   0.141969   0.576581   0.104087   0.458815
    2             0.366278   0.596961   0.091867   0.245627   0.330619
    3             0.402850   0.135431   0.512212   0.463991   0.134140
    4             0.396918   0.409913   0.243981   0.432001   0.163937
    5             0.355021   0.421114   0.278393   0.202481   0.367712
    6             0.015757   0.041279   0.023929   0.017434   0.081644
    7             0.014201   0.038551   0.019342   0.044314   0.073255
    8             0.014307   0.030972   0.017312   0.116025   0.015102
    9             0.016826   0.041422   0.020190   0.074562   0.017109
   10             0.016947   0.006137   0.055236   0.083094   0.008076
   11             0.014239   0.004143   0.043218   0.124959   0.006950
   12             0.014280   0.055280   0.000013   0.058981   0.062010
   13             0.016083   0.064270   0.000027   0.027865   0.069565
   14             0.014767   0.006558   0.058202   0.004009   0.105228
   15             0.014844   0.006000   0.059496   0.000570   0.105837

                     11         12         13         14         15

                  2.000000   2.000000   2.000000   2.000000   2.000000

    1             0.281818   0.274165   0.522963   0.003997   0.029989
    2             0.304690   0.286638   0.086071   0.444516   0.396176
    3             0.257481   0.354870   0.324009   0.203101   0.371636
    4             0.306199   0.302503   0.262904   0.267097   0.231666
    5             0.276236   0.307950   0.127899   0.401064   0.439335
    6             0.054601   0.082294   0.016192   0.082275   0.139449
    7             0.052343   0.015465   0.030655   0.159491   0.014462
    8             0.039439   0.017928   0.106716   0.082904   0.001400
    9             0.091636   0.072937   0.027487   0.025649   0.079797
   10             0.059569   0.108686   0.032631   0.015366   0.153137
   11             0.047951   0.008244   0.135690   0.051424   0.001397
   12             0.039861   0.024342   0.010608   0.181860   0.005263
   13             0.083747   0.060948   0.005905   0.078711   0.129560
   14             0.059809   0.029884   0.161869   0.000543   0.005776
   15             0.044619   0.053146   0.148400   0.002001   0.000956

                     16         17         18         19         20

                  2.000000   2.000000   2.000000   2.000000   2.000000

    1             0.506899   0.668438   0.146674   0.000241   0.389480
    2             0.167068   0.397209   0.330808   0.161738   0.243929
    3             0.284658   0.093728   0.483188   0.374770   0.055564
    4             0.417557   0.103583   0.488405   0.354444   0.071181
    5             0.106035   0.457882   0.305933   0.122918   0.277214
    6             0.006176   0.032014   0.074899   0.040996   0.067539
    7             0.005224   0.021534   0.001553   0.088616   0.197785
    8             0.002184   0.000185   0.004703   0.285817   0.041146
    9             0.181387   0.058150   0.014841   0.050336   0.004080
   10             0.106418   0.074745   0.009795   0.045060   0.001627
   11             0.000800   0.002205   0.002765   0.308600   0.023364
   12             0.008290   0.016802   0.000043   0.118818   0.180362
   13             0.037797   0.055852   0.052121   0.046163   0.048007
   14             0.075183   0.011858   0.034422   0.000948   0.208191
   15             0.094325   0.005814   0.049849   0.000536   0.190530

               ----- POPULATIONS IN EACH AO -----
                             MULLIKEN      LOWDIN
              1  C  1  S      1.97965     1.95786
              2  C  1  S      0.81227     0.64010
              3  C  1  S      0.51078     0.39914
              4  C  1  X      0.46646     0.45458
              5  C  1  Y      0.49303     0.48241
              6  C  1  Z      0.50802     0.49111
              7  C  1  X      0.46293     0.56693
              8  C  1  Y      0.54879     0.59595
              9  C  1  Z      0.64682     0.63714
             10  C  2  S      1.97961     1.95790
             11  C  2  S      0.81027     0.64002
             12  C  2  S      0.52569     0.39849
             13  C  2  X      0.49035     0.47967
             14  C  2  Y      0.47600     0.46517
             15  C  2  Z      0.50431     0.48745
             16  C  2  X      0.55236     0.59311
             17  C  2  Y      0.47080     0.56752
             18  C  2  Z      0.63568     0.63283
             19  C  3  S      1.97964     1.95792
             20  C  3  S      0.80787     0.63962
             21  C  3  S      0.53831     0.39846
             22  C  3  X      0.48508     0.47502
             23  C  3  Y      0.48706     0.47622
             24  C  3  Z      0.50182     0.48518
             25  C  3  X      0.50333     0.57716
             26  C  3  Y      0.51916     0.58307
             27  C  3  Z      0.62396     0.62845
             28  C  4  S      1.97963     1.95792
             29  C  4  S      0.80813     0.63978
             30  C  4  S      0.53696     0.39857
             31  C  4  X      0.48003     0.46978
             32  C  4  Y      0.49107     0.48039
             33  C  4  Z      0.50212     0.48545
             34  C  4  X      0.47857     0.57014
             35  C  4  Y      0.54416     0.59008
             36  C  4  Z      0.62619     0.62898
             37  C  5  S      1.97962     1.95789
             38  C  5  S      0.81072     0.64006
             39  C  5  S      0.52256     0.39882
             40  C  5  X      0.49339     0.48304
             41  C  5  Y      0.47075     0.45935
             42  C  5  Z      0.50527     0.48836
             43  C  5  X      0.56069     0.59607
             44  C  5  Y      0.46091     0.56540
             45  C  5  Z      0.63837     0.63394
             46  H  6  S      0.57654     0.56077
             47  H  6  S      0.20234     0.32648
             48  H  7  S      0.57694     0.56386
             49  H  7  S      0.20246     0.32573
             50  H  8  S      0.57542     0.56210
             51  H  8  S      0.20332     0.32864
             52  H  9  S      0.57642     0.56008
             53  H  9  S      0.20238     0.32771
             54  H 10  S      0.57635     0.55984
             55  H 10  S      0.20255     0.32794
             56  H 11  S      0.57515     0.56191
             57  H 11  S      0.20339     0.32894
             58  H 12  S      0.57659     0.56370
             59  H 12  S      0.20284     0.32643
             60  H 13  S      0.57641     0.56055
             61  H 13  S      0.20260     0.32694
             62  H 14  S      0.57738     0.56309
             63  H 14  S      0.20236     0.32500
             64  H 15  S      0.57703     0.56259
             65  H 15  S      0.20236     0.32519

          ----- MULLIKEN ATOMIC OVERLAP POPULATIONS -----
          (OFF-DIAGONAL ELEMENTS NEED TO BE MULTIPLIED BY 2)

             1           2           3           4           5

    1    5.3669725
    2    0.3043139   5.4127216
    3   -0.1031605   0.3035384   5.4381691
    4   -0.0950185  -0.1428334   0.3040813   5.4362062
    5    0.3034187  -0.0771394  -0.1362925   0.3047399   5.4008499
    6   -0.0285109   0.0044828   0.0078609  -0.0314676   0.3815405
    7   -0.0379902   0.0025135   0.0026700  -0.0402900   0.3862209
    8   -0.0001530   0.0005153  -0.0409409   0.3836500  -0.0378227
    9    0.0057742   0.0080783  -0.0298033   0.3781314  -0.0286358
   10    0.0061060  -0.0279874   0.3777935  -0.0293956   0.0077011
   11   -0.0004387  -0.0388367   0.3839381  -0.0406550   0.0001520
   12   -0.0380467   0.3857624  -0.0409668   0.0021914   0.0017664
   13   -0.0283627   0.3802192  -0.0304948   0.0081442   0.0046704
   14    0.3870809  -0.0341343   0.0036315   0.0054764  -0.0360145
   15    0.3867806  -0.0361653   0.0062045   0.0038910  -0.0328789

             6           7           8           9          10

    6    0.4817941
    7   -0.0270657   0.4966067
    8   -0.0065130   0.0054068   0.4979359
    9    0.0016223  -0.0065601  -0.0266525   0.4824703
   10   -0.0002324  -0.0003132  -0.0056527   0.0010149   0.4821939
   11   -0.0002473   0.0027158   0.0057928  -0.0056551  -0.0269675
   12   -0.0001838  -0.0000694   0.0031212  -0.0003236  -0.0062600
   13   -0.0001328  -0.0002329  -0.0002812  -0.0002342   0.0013498
   14    0.0030458  -0.0084833  -0.0001132  -0.0002529  -0.0002036
   15   -0.0071158   0.0042799   0.0004511  -0.0001829  -0.0002487

            11          12          13          14          15

   11    0.4986895
   12    0.0055949   0.4976214
   13   -0.0062228  -0.0270606   0.4818799
   14    0.0008110   0.0045574  -0.0070265   0.4897001
   15   -0.0001336  -0.0082671   0.0027930  -0.0283346   0.4883149

          TOTAL MULLIKEN AND LOWDIN ATOMIC POPULATIONS
       ATOM         MULL.POP.    CHARGE          LOW.POP.     CHARGE
    1 C             6.428766   -0.428766         6.225224   -0.225224
    2 C             6.445049   -0.445049         6.222164   -0.222164
    3 C             6.446229   -0.446229         6.221116   -0.221116
    4 C             6.446852   -0.446852         6.221100   -0.221100
    5 C             6.442276   -0.442276         6.222909   -0.222909
    6 H             0.778877    0.221123         0.887251    0.112749
    7 H             0.779409    0.220591         0.889584    0.110416
    8 H             0.778744    0.221256         0.890746    0.109254
    9 H             0.778791    0.221209         0.887786    0.112214
   10 H             0.778898    0.221102         0.887776    0.112224
   11 H             0.778537    0.221463         0.890857    0.109143
   12 H             0.779437    0.220563         0.890123    0.109877
   13 H             0.779008    0.220992         0.887490    0.112510
   14 H             0.779740    0.220260         0.888089    0.111911
   15 H             0.779388    0.220612         0.887784    0.112216

          MULLIKEN SPHERICAL HARMONIC POPULATIONS
       ATOM           S       P       D      F      G      H      I    TOTAL
    1 C             3.30    3.13    0.00   0.00   0.00   0.00   0.00    6.43
    2 C             3.32    3.13    0.00   0.00   0.00   0.00   0.00    6.45
    3 C             3.33    3.12    0.00   0.00   0.00   0.00   0.00    6.45
    4 C             3.32    3.12    0.00   0.00   0.00   0.00   0.00    6.45
    5 C             3.31    3.13    0.00   0.00   0.00   0.00   0.00    6.44
    6 H             0.78    0.00    0.00   0.00   0.00   0.00   0.00    0.78
    7 H             0.78    0.00    0.00   0.00   0.00   0.00   0.00    0.78
    8 H             0.78    0.00    0.00   0.00   0.00   0.00   0.00    0.78
    9 H             0.78    0.00    0.00   0.00   0.00   0.00   0.00    0.78
   10 H             0.78    0.00    0.00   0.00   0.00   0.00   0.00    0.78
   11 H             0.78    0.00    0.00   0.00   0.00   0.00   0.00    0.78
   12 H             0.78    0.00    0.00   0.00   0.00   0.00   0.00    0.78
   13 H             0.78    0.00    0.00   0.00   0.00   0.00   0.00    0.78
   14 H             0.78    0.00    0.00   0.00   0.00   0.00   0.00    0.78
   15 H             0.78    0.00    0.00   0.00   0.00   0.00   0.00    0.78

          -------------------------------
          BOND ORDER AND VALENCE ANALYSIS     BOND ORDER THRESHOLD=0.050
          -------------------------------

                   BOND                       BOND                       BOND
  ATOM PAIR DIST  ORDER      ATOM PAIR DIST  ORDER      ATOM PAIR DIST  ORDER
    1   2  1.576  0.973        1   5  1.582  0.972        1  14  1.107  0.932
    1  15  1.107  0.932        2   3  1.562  0.976        2  12  1.110  0.926
    2  13  1.106  0.928        3   4  1.561  0.972        3  10  1.106  0.925
    3  11  1.110  0.921        4   5  1.568  0.977        4   8  1.110  0.922
    4   9  1.106  0.926        5   6  1.106  0.929        5   7  1.108  0.928

                       TOTAL       BONDED        FREE
      ATOM            VALENCE     VALENCE     VALENCE
    1 C                 3.724       3.724       0.000
    2 C                 3.714       3.714       0.000
    3 C                 3.699       3.699       0.000
    4 C                 3.701       3.701       0.000
    5 C                 3.718       3.718       0.000
    6 H                 0.912       0.912      -0.000
    7 H                 0.908       0.908      -0.000
    8 H                 0.907       0.907       0.000
    9 H                 0.911       0.911       0.000
   10 H                 0.912       0.912       0.000
   11 H                 0.907       0.907       0.000
   12 H                 0.908       0.908      -0.000
   13 H                 0.912       0.912       0.000
   14 H                 0.910       0.910      -0.000
   15 H                 0.910       0.910      -0.000

          ---------------------
          ELECTROSTATIC MOMENTS
          ---------------------

 POINT   1           X           Y           Z (BOHR)    CHARGE
                 0.000000   -0.000000   -0.000000        0.00 (A.U.)
         DX          DY          DZ         /D/  (DEBYE)
    -0.008349    0.005947    0.008498    0.013315
 ...... END OF PROPERTY EVALUATION ......
 STEP CPU TIME =     0.02 TOTAL CPU TIME =        939.1 (     15.7 MIN)
 TOTAL WALL CLOCK TIME=        946.2 SECONDS, CPU UTILIZATION IS    99.24%
  $VIB   
          IVIB=   0 IATOM=   0 ICOORD=   0 E=     -195.7887804689
  1.254478181E-05 3.193897213E-04 5.801426694E-04 1.503508549E-05-2.830564564E-04
  3.934997427E-04 8.756289062E-05 2.171934730E-04-6.500094099E-05-4.439831236E-05
 -7.978367521E-05-7.535449290E-04 2.853615320E-04-2.175886147E-05-3.180743295E-04
  1.807621472E-04-6.816885495E-05 2.756174833E-04-3.963376492E-04 1.545189366E-04
  1.111789671E-04-2.818333021E-04 3.200524729E-04 5.146314282E-05 2.575743351E-04
 -3.080969453E-04 2.496595016E-04 8.463741050E-05 4.633555571E-05 2.541329395E-05
 -1.817538120E-04 1.438476284E-04 1.422326398E-05 6.360307708E-05 1.605446287E-04
 -1.276820365E-05 3.247377903E-08-2.879855103E-04-2.430269019E-04 3.469246508E-04
 -2.669862375E-04-1.943389329E-04-4.297153087E-04-4.604587539E-05-1.144438268E-04
 -8.349165911E-03 5.946882242E-03 8.498132132E-03
 ......END OF GEOMETRY SEARCH......
 STEP CPU TIME =     0.00 TOTAL CPU TIME =        939.1 (     15.7 MIN)
 TOTAL WALL CLOCK TIME=        946.2 SECONDS, CPU UTILIZATION IS    99.24%
                580000  WORDS OF DYNAMIC MEMORY USED
 EXECUTION OF GAMESS TERMINATED NORMALLY Fri Oct  4 00:06:35 2019
 DDI: 263640 bytes (0.3 MB / 0 MWords) used by master data server.

 ----------------------------------------
 CPU timing information for all processes
 ========================================
 0: 934.03 + 5.70 = 939.73
 ----------------------------------------
 ddikick.x: exited gracefully.
----- accounting info -----
Files used on the master node d12chas540.crc.nd.edu were:
-rw-r--r-- 1 wschnei1 campus 1365004 Oct  4 00:06 /scratch365/wschnei1/opt-dlc.F07
Fri Oct  4 00:06:38 EDT 2019
0.431u 0.374s 15:50.02 0.0%	0+0k 0+2712io 0pf+0w
