   1   1   1   0
  0.1852200E+02  0.2969849E-09  0.2969849E-09  0.2969849E-09  0.5000000E-15
   1.0000000000000000E-004
  CAR 
 Au, FCC                                 
     25.37893441     -5.59504483  301      4.55981025      1.00000000
     -5.595  0.0000E+00  0.0000E+00
     -5.492  0.0000E+00  0.0000E+00
     -5.389  0.0000E+00  0.0000E+00
     -5.285  0.0000E+00  0.0000E+00
     -5.182  0.0000E+00  0.0000E+00
     -5.079  0.0000E+00  0.0000E+00
     -4.976  0.0000E+00  0.0000E+00
     -4.872  0.0000E+00  0.0000E+00
     -4.769  0.8401E-17  0.8674E-18
     -4.666  0.4883E-12  0.5042E-13
     -4.563  0.4157E-08  0.4293E-09
     -4.459  0.4475E-05  0.4625E-06
     -4.356  0.6342E-03  0.6594E-04
     -4.253  0.1271E-01  0.1378E-02
     -4.150  0.3980E-01  0.5487E-02
     -4.046  0.2158E-01  0.7715E-02
     -3.943  0.2580E-01  0.1038E-01
     -3.840  0.1094E+00  0.2168E-01
     -3.737  0.8313E-01  0.3026E-01
     -3.633  0.3226E-01  0.3359E-01
     -3.530  0.1073E+00  0.4467E-01
     -3.427  0.8688E-01  0.5363E-01
     -3.324  0.4296E-01  0.5807E-01
     -3.220  0.1419E+00  0.7272E-01
     -3.117  0.1163E+00  0.8472E-01
     -3.014  0.9228E-01  0.9425E-01
     -2.911  0.2406E+00  0.1191E+00
     -2.807  0.1552E+00  0.1351E+00
     -2.704  0.1262E+00  0.1481E+00
     -2.601  0.7369E-01  0.1557E+00
     -2.498  0.6475E-01  0.1624E+00
     -2.394  0.2678E+00  0.1901E+00
     -2.291  0.3005E+00  0.2211E+00
     -2.188  0.2603E+00  0.2480E+00
     -2.085  0.3403E+00  0.2831E+00
     -1.981  0.2711E+00  0.3111E+00
     -1.878  0.5277E+00  0.3656E+00
     -1.775  0.7506E+00  0.4431E+00
     -1.672  0.7598E+00  0.5215E+00
     -1.568  0.9347E+00  0.6181E+00
     -1.465  0.1059E+01  0.7274E+00
     -1.362  0.1698E+01  0.9027E+00
     -1.259  0.1913E+01  0.1100E+01
     -1.155  0.1830E+01  0.1289E+01
     -1.052  0.2205E+01  0.1517E+01
     -0.949  0.2123E+01  0.1736E+01
     -0.846  0.1680E+01  0.1910E+01
     -0.742  0.1869E+01  0.2103E+01
     -0.639  0.1758E+01  0.2284E+01
     -0.536  0.1536E+01  0.2443E+01
     -0.433  0.1273E+01  0.2574E+01
     -0.329  0.1577E+01  0.2737E+01
     -0.226  0.2157E+01  0.2960E+01
     -0.123  0.2116E+01  0.3178E+01
     -0.020  0.2275E+01  0.3413E+01
      0.084  0.2044E+01  0.3624E+01
      0.187  0.2197E+01  0.3851E+01
      0.290  0.2620E+01  0.4121E+01
      0.393  0.2894E+01  0.4420E+01
      0.497  0.2827E+01  0.4712E+01
      0.600  0.2985E+01  0.5020E+01
      0.703  0.3242E+01  0.5355E+01
      0.806  0.3339E+01  0.5700E+01
      0.909  0.2376E+01  0.5945E+01
      1.013  0.2101E+01  0.6162E+01
      1.116  0.2007E+01  0.6369E+01
      1.219  0.2019E+01  0.6578E+01
      1.322  0.1704E+01  0.6754E+01
      1.426  0.1800E+01  0.6939E+01
      1.529  0.2486E+01  0.7196E+01
      1.632  0.3034E+01  0.7509E+01
      1.735  0.2423E+01  0.7759E+01
      1.839  0.1578E+01  0.7922E+01
      1.942  0.2212E+01  0.8151E+01
      2.045  0.2658E+01  0.8425E+01
      2.148  0.1481E+01  0.8578E+01
      2.252  0.1403E+01  0.8723E+01
      2.355  0.2493E+01  0.8981E+01
      2.458  0.2184E+01  0.9206E+01
      2.561  0.2145E+01  0.9428E+01
      2.665  0.3077E+01  0.9745E+01
      2.768  0.3577E+01  0.1011E+02
      2.871  0.2379E+01  0.1036E+02
      2.974  0.1328E+01  0.1050E+02
      3.078  0.3898E+00  0.1054E+02
      3.181  0.1126E+00  0.1055E+02
      3.284  0.1647E+00  0.1057E+02
      3.387  0.1681E+00  0.1058E+02
      3.491  0.4469E+00  0.1063E+02
      3.594  0.6568E+00  0.1070E+02
      3.697  0.4407E+00  0.1074E+02
      3.800  0.2901E+00  0.1077E+02
      3.904  0.7662E-01  0.1078E+02
      4.007  0.2164E-01  0.1078E+02
      4.110  0.1035E+00  0.1079E+02
      4.213  0.1789E+00  0.1081E+02
      4.317  0.4405E+00  0.1086E+02
      4.420  0.7165E+00  0.1093E+02
      4.523  0.5165E+00  0.1098E+02
      4.626  0.3693E+00  0.1102E+02
      4.730  0.1553E+00  0.1104E+02
      4.833  0.1457E+00  0.1105E+02
      4.936  0.2375E+00  0.1108E+02
      5.039  0.1217E+00  0.1109E+02
      5.143  0.2431E+00  0.1112E+02
      5.246  0.2640E+00  0.1114E+02
      5.349  0.2539E+00  0.1117E+02
      5.452  0.5119E+00  0.1122E+02
      5.556  0.4154E+00  0.1127E+02
      5.659  0.1710E+00  0.1128E+02
      5.762  0.3495E+00  0.1132E+02
      5.865  0.2758E+00  0.1135E+02
      5.969  0.1772E+00  0.1137E+02
      6.072  0.3467E+00  0.1140E+02
      6.175  0.4556E+00  0.1145E+02
      6.278  0.1455E+00  0.1146E+02
      6.382  0.2028E+00  0.1148E+02
      6.485  0.2579E+00  0.1151E+02
      6.588  0.2701E+00  0.1154E+02
      6.691  0.2511E+00  0.1157E+02
      6.795  0.4286E+00  0.1161E+02
      6.898  0.3818E+00  0.1165E+02
      7.001  0.2801E+00  0.1168E+02
      7.104  0.1533E+00  0.1169E+02
      7.208  0.5075E-01  0.1170E+02
      7.311  0.2228E+00  0.1172E+02
      7.414  0.4954E+00  0.1177E+02
      7.517  0.5530E+00  0.1183E+02
      7.621  0.5583E+00  0.1189E+02
      7.724  0.4229E+00  0.1193E+02
      7.827  0.2601E+00  0.1196E+02
      7.930  0.2796E+00  0.1199E+02
      8.034  0.2669E+00  0.1201E+02
      8.137  0.3655E+00  0.1205E+02
      8.240  0.4628E+00  0.1210E+02
      8.343  0.1636E+00  0.1212E+02
      8.446  0.1503E+00  0.1213E+02
      8.550  0.5594E+00  0.1219E+02
      8.653  0.5845E+00  0.1225E+02
      8.756  0.1648E+00  0.1227E+02
      8.859  0.1184E+00  0.1228E+02
      8.963  0.8049E-01  0.1229E+02
      9.066  0.8120E-01  0.1230E+02
      9.169  0.3984E+00  0.1234E+02
      9.272  0.4984E+00  0.1239E+02
      9.376  0.1613E+00  0.1241E+02
      9.479  0.1470E+00  0.1242E+02
      9.582  0.4402E+00  0.1247E+02
      9.685  0.3287E+00  0.1250E+02
      9.789  0.3681E+00  0.1254E+02
      9.892  0.6120E+00  0.1260E+02
      9.995  0.5377E+00  0.1266E+02
     10.098  0.4541E+00  0.1270E+02
     10.202  0.3881E+00  0.1274E+02
     10.305  0.3699E+00  0.1278E+02
     10.408  0.4770E+00  0.1283E+02
     10.511  0.6294E+00  0.1290E+02
     10.615  0.4114E+00  0.1294E+02
     10.718  0.1037E+00  0.1295E+02
     10.821  0.1222E+00  0.1296E+02
     10.924  0.5696E-01  0.1297E+02
     11.028  0.2396E-01  0.1297E+02
     11.131  0.1942E+00  0.1299E+02
     11.234  0.4698E+00  0.1304E+02
     11.337  0.4336E+00  0.1308E+02
     11.441  0.2014E+00  0.1310E+02
     11.544  0.8877E-01  0.1311E+02
     11.647  0.2508E+00  0.1314E+02
     11.750  0.5382E+00  0.1320E+02
     11.854  0.4245E+00  0.1324E+02
     11.957  0.3012E+00  0.1327E+02
     12.060  0.2555E+00  0.1330E+02
     12.163  0.4912E+00  0.1335E+02
     12.267  0.8282E+00  0.1343E+02
     12.370  0.6193E+00  0.1350E+02
     12.473  0.2809E+00  0.1353E+02
     12.576  0.2804E+00  0.1355E+02
     12.680  0.3397E+00  0.1359E+02
     12.783  0.2693E+00  0.1362E+02
     12.886  0.5059E+00  0.1367E+02
     12.989  0.3046E+00  0.1370E+02
     13.093  0.1920E+00  0.1372E+02
     13.196  0.2245E+00  0.1374E+02
     13.299  0.8105E-01  0.1375E+02
     13.402  0.2108E+00  0.1377E+02
     13.506  0.5269E+00  0.1383E+02
     13.609  0.6162E+00  0.1389E+02
     13.712  0.5316E+00  0.1395E+02
     13.815  0.5132E+00  0.1400E+02
     13.919  0.3986E+00  0.1404E+02
     14.022  0.1277E+00  0.1405E+02
     14.125  0.1454E+00  0.1407E+02
     14.228  0.4267E+00  0.1411E+02
     14.332  0.5694E+00  0.1417E+02
     14.435  0.6641E+00  0.1424E+02
     14.538  0.6646E+00  0.1431E+02
     14.641  0.3631E+00  0.1435E+02
     14.745  0.2772E+00  0.1438E+02
     14.848  0.5899E+00  0.1444E+02
     14.951  0.8749E+00  0.1453E+02
     15.054  0.9058E+00  0.1462E+02
     15.158  0.5797E+00  0.1468E+02
     15.261  0.3913E+00  0.1472E+02
     15.364  0.5161E+00  0.1477E+02
     15.467  0.7051E+00  0.1485E+02
     15.571  0.5944E+00  0.1491E+02
     15.674  0.1251E+00  0.1492E+02
     15.777  0.8069E-02  0.1492E+02
     15.880  0.8104E-01  0.1493E+02
     15.983  0.3537E+00  0.1497E+02
     16.087  0.5420E+00  0.1502E+02
     16.190  0.5485E+00  0.1508E+02
     16.293  0.7115E+00  0.1515E+02
     16.396  0.1060E+01  0.1526E+02
     16.500  0.7190E+00  0.1534E+02
     16.603  0.5021E+00  0.1539E+02
     16.706  0.6552E+00  0.1546E+02
     16.809  0.7235E+00  0.1553E+02
     16.913  0.5575E+00  0.1559E+02
     17.016  0.3064E+00  0.1562E+02
     17.119  0.1212E+00  0.1563E+02
     17.222  0.4132E+00  0.1568E+02
     17.326  0.4331E+00  0.1572E+02
     17.429  0.1899E+00  0.1574E+02
     17.532  0.2472E+00  0.1577E+02
     17.635  0.6990E+00  0.1584E+02
     17.739  0.8368E+00  0.1592E+02
     17.842  0.6339E+00  0.1599E+02
     17.945  0.5939E+00  0.1605E+02
     18.048  0.4102E+00  0.1609E+02
     18.152  0.3062E+00  0.1612E+02
     18.255  0.3059E+00  0.1616E+02
     18.358  0.6507E+00  0.1622E+02
     18.461  0.9171E+00  0.1632E+02
     18.565  0.5415E+00  0.1637E+02
     18.668  0.1080E+00  0.1639E+02
     18.771  0.1801E+00  0.1640E+02
     18.874  0.2897E+00  0.1643E+02
     18.978  0.4220E+00  0.1648E+02
     19.081  0.6051E+00  0.1654E+02
     19.184  0.4874E+00  0.1659E+02
     19.287  0.4764E+00  0.1664E+02
     19.391  0.6382E+00  0.1671E+02
     19.494  0.7548E+00  0.1678E+02
     19.597  0.9107E+00  0.1688E+02
     19.700  0.5457E+00  0.1693E+02
     19.804  0.2033E+00  0.1695E+02
     19.907  0.3835E+00  0.1699E+02
     20.010  0.7495E+00  0.1707E+02
     20.113  0.7417E+00  0.1715E+02
     20.217  0.6688E+00  0.1722E+02
     20.320  0.4496E+00  0.1726E+02
     20.423  0.2776E+00  0.1729E+02
     20.526  0.8456E-01  0.1730E+02
     20.630  0.2709E+00  0.1733E+02
     20.733  0.5090E+00  0.1738E+02
     20.836  0.3460E+00  0.1742E+02
     20.939  0.3920E+00  0.1746E+02
     21.043  0.5921E+00  0.1752E+02
     21.146  0.4943E+00  0.1757E+02
     21.249  0.4378E+00  0.1761E+02
     21.352  0.1650E+00  0.1763E+02
     21.456  0.9588E-01  0.1764E+02
     21.559  0.3095E+00  0.1767E+02
     21.662  0.6393E+00  0.1774E+02
     21.765  0.4966E+00  0.1779E+02
     21.869  0.1230E+00  0.1780E+02
     21.972  0.9667E-02  0.1780E+02
     22.075  0.1104E-02  0.1780E+02
     22.178  0.2587E-01  0.1781E+02
     22.282  0.1225E+00  0.1782E+02
     22.385  0.2025E+00  0.1784E+02
     22.488  0.3370E+00  0.1788E+02
     22.591  0.2507E+00  0.1790E+02
     22.695  0.6121E-01  0.1791E+02
     22.798  0.1748E+00  0.1793E+02
     22.901  0.3240E+00  0.1796E+02
     23.004  0.1487E+00  0.1797E+02
     23.108  0.2963E-01  0.1798E+02
     23.211  0.4024E-01  0.1798E+02
     23.314  0.2112E-01  0.1798E+02
     23.417  0.1450E-01  0.1799E+02
     23.520  0.3985E-01  0.1799E+02
     23.624  0.2064E-01  0.1799E+02
     23.727  0.1734E-02  0.1799E+02
     23.830  0.1758E-02  0.1799E+02
     23.933  0.2077E-01  0.1799E+02
     24.037  0.3979E-01  0.1800E+02
     24.140  0.1271E-01  0.1800E+02
     24.243  0.6342E-03  0.1800E+02
     24.346  0.4475E-05  0.1800E+02
     24.450  0.4157E-08  0.1800E+02
     24.553  0.4883E-12  0.1800E+02
     24.656  0.8401E-17  0.1800E+02
     24.759  0.0000E+00  0.1800E+02
     24.863  0.0000E+00  0.1800E+02
     24.966  0.0000E+00  0.1800E+02
     25.069  0.0000E+00  0.1800E+02
     25.172  0.0000E+00  0.1800E+02
     25.276  0.0000E+00  0.1800E+02
     25.379  0.0000E+00  0.1800E+02
     25.37893441     -5.59504483  301      4.55981025      1.00000000
     -5.595  0.0000E+00  0.0000E+00  0.0000E+00  0.0000E+00  0.0000E+00  0.0000E+00  0.0000E+00  0.0000E+00  0.0000E+00
     -5.492  0.0000E+00  0.0000E+00  0.0000E+00  0.0000E+00  0.0000E+00  0.0000E+00  0.0000E+00  0.0000E+00  0.0000E+00
     -5.389  0.0000E+00  0.0000E+00  0.0000E+00  0.0000E+00  0.0000E+00  0.0000E+00  0.0000E+00  0.0000E+00  0.0000E+00
     -5.285  0.0000E+00  0.0000E+00  0.0000E+00  0.0000E+00  0.0000E+00  0.0000E+00  0.0000E+00  0.0000E+00  0.0000E+00
     -5.182  0.0000E+00  0.0000E+00  0.0000E+00  0.0000E+00  0.0000E+00  0.0000E+00  0.0000E+00  0.0000E+00  0.0000E+00
     -5.079  0.0000E+00  0.0000E+00  0.0000E+00  0.0000E+00  0.0000E+00  0.0000E+00  0.0000E+00  0.0000E+00  0.0000E+00
     -4.976  0.0000E+00  0.0000E+00  0.0000E+00  0.0000E+00  0.0000E+00  0.0000E+00  0.0000E+00  0.0000E+00  0.0000E+00
     -4.872  0.0000E+00  0.0000E+00  0.0000E+00  0.0000E+00  0.0000E+00  0.0000E+00  0.0000E+00  0.0000E+00  0.0000E+00
     -4.769  0.4745E-17  0.1376E-19  0.1376E-19  0.1376E-19  0.6245E-21  0.6245E-21  0.4695E-32  0.6245E-21  0.7219E-32
     -4.666  0.2758E-12  0.7996E-15  0.7996E-15  0.7996E-15  0.3630E-16  0.3630E-16  0.2729E-27  0.3630E-16  0.4196E-27
     -4.563  0.2348E-08  0.6808E-11  0.6808E-11  0.6808E-11  0.3090E-12  0.3090E-12  0.2324E-23  0.3090E-12  0.3572E-23
     -4.459  0.2528E-05  0.7328E-08  0.7328E-08  0.7328E-08  0.3327E-09  0.3327E-09  0.2501E-20  0.3327E-09  0.3846E-20
     -4.356  0.3582E-03  0.1039E-05  0.1039E-05  0.1039E-05  0.4714E-07  0.4714E-07  0.3771E-16  0.4714E-07  0.1126E-15
     -4.253  0.7179E-02  0.2081E-04  0.2081E-04  0.2081E-04  0.9448E-06  0.9448E-06  0.4875E-12  0.9448E-06  0.1463E-11
     -4.150  0.2248E-01  0.6517E-04  0.6517E-04  0.6522E-04  0.2961E-05  0.2958E-05  0.8001E-09  0.2961E-05  0.2400E-08
     -4.046  0.1218E-01  0.3526E-04  0.3526E-04  0.4573E-04  0.2108E-05  0.1628E-05  0.1710E-06  0.2108E-05  0.5131E-06
     -3.943  0.1423E-01  0.3989E-04  0.3989E-04  0.3510E-03  0.1688E-04  0.2619E-05  0.5081E-05  0.1688E-04  0.1524E-04
     -3.840  0.6025E-01  0.1685E-03  0.1685E-03  0.1582E-02  0.7617E-04  0.1134E-04  0.2310E-04  0.7617E-04  0.6929E-04
     -3.737  0.4575E-01  0.1364E-03  0.1364E-03  0.1193E-02  0.5807E-04  0.1310E-04  0.1752E-04  0.5806E-04  0.5257E-04
     -3.633  0.1742E-01  0.3157E-03  0.3157E-03  0.1770E-03  0.2867E-04  0.1460E-03  0.6034E-05  0.2867E-04  0.1810E-04
     -3.530  0.5738E-01  0.1451E-02  0.1451E-02  0.1512E-03  0.1047E-03  0.7010E-03  0.1891E-04  0.1047E-03  0.5667E-04
     -3.427  0.4645E-01  0.1170E-02  0.1188E-02  0.1279E-03  0.9013E-04  0.5682E-03  0.2011E-04  0.9106E-04  0.4525E-04
     -3.324  0.2241E-01  0.3372E-03  0.1016E-02  0.2012E-03  0.1365E-03  0.2329E-03  0.1852E-03  0.1705E-03  0.5909E-05
     -3.220  0.7338E-01  0.6225E-03  0.4361E-02  0.6206E-03  0.3869E-03  0.5754E-03  0.1010E-02  0.5742E-03  0.2137E-06
     -3.117  0.6010E-01  0.4114E-03  0.3769E-02  0.5032E-03  0.2771E-03  0.3802E-03  0.9300E-03  0.3839E-03  0.1392E-04
     -3.014  0.4639E-01  0.9427E-03  0.6279E-03  0.2769E-02  0.1517E-02  0.1954E-03  0.3744E-03  0.2696E-03  0.2768E-03
     -2.911  0.1202E+00  0.2824E-02  0.2826E-03  0.8526E-02  0.4693E-02  0.4977E-03  0.7425E-03  0.7398E-03  0.8639E-03
     -2.807  0.7663E-01  0.1742E-02  0.4197E-03  0.5357E-02  0.3252E-02  0.8051E-03  0.4115E-03  0.1203E-02  0.5329E-03
     -2.704  0.5969E-01  0.1177E-02  0.1067E-02  0.3916E-02  0.3298E-02  0.2089E-02  0.1392E-03  0.3128E-02  0.3592E-03
     -2.601  0.3465E-01  0.7072E-03  0.7336E-03  0.2189E-02  0.1920E-02  0.1385E-02  0.9547E-04  0.1919E-02  0.2050E-03
     -2.498  0.2946E-01  0.1284E-02  0.2358E-02  0.2721E-03  0.5803E-03  0.2635E-02  0.1094E-02  0.6362E-03  0.1565E-03
     -2.394  0.1195E+00  0.4772E-02  0.1106E-01  0.4139E-03  0.3157E-02  0.1101E-01  0.6266E-02  0.3484E-02  0.4893E-03
     -2.291  0.1301E+00  0.4832E-02  0.1178E-01  0.7572E-03  0.6688E-02  0.1392E-01  0.6827E-02  0.7000E-02  0.3941E-03
     -2.188  0.1086E+00  0.3041E-02  0.1223E-01  0.6757E-03  0.6499E-02  0.1312E-01  0.8527E-02  0.6548E-02  0.1068E-03
     -2.085  0.1390E+00  0.2941E-02  0.1745E-01  0.9669E-03  0.9504E-02  0.1701E-01  0.1277E-01  0.9645E-02  0.3780E-04
     -1.981  0.9362E-01  0.1610E-02  0.9170E-02  0.2081E-02  0.2135E-01  0.2359E-01  0.6213E-02  0.2066E-01  0.2426E-03
     -1.878  0.1397E+00  0.3446E-02  0.2665E-02  0.8897E-02  0.7661E-01  0.7434E-01  0.2199E-02  0.6670E-01  0.1705E-02
     -1.775  0.2071E+00  0.7351E-02  0.2132E-02  0.1733E-01  0.1096E+00  0.9181E-01  0.8162E-02  0.7993E-01  0.3830E-02
     -1.672  0.1908E+00  0.6520E-02  0.8110E-02  0.1416E-01  0.1025E+00  0.8501E-01  0.6181E-01  0.6634E-01  0.3377E-02
     -1.568  0.1726E+00  0.3908E-02  0.1425E-01  0.5573E-02  0.1185E+00  0.1214E+00  0.1662E+00  0.9040E-01  0.2465E-02
     -1.465  0.1790E+00  0.3856E-02  0.2228E-01  0.5887E-02  0.1147E+00  0.9509E-01  0.2962E+00  0.5936E-01  0.9406E-02
     -1.362  0.2443E+00  0.6699E-02  0.3106E-01  0.9484E-02  0.3059E+00  0.1511E+00  0.4451E+00  0.8095E-01  0.1282E-01
     -1.259  0.2186E+00  0.9378E-02  0.2374E-01  0.9731E-02  0.4857E+00  0.1999E+00  0.4422E+00  0.9304E-01  0.8840E-02
     -1.155  0.1790E+00  0.9285E-02  0.2722E-01  0.7099E-02  0.6053E+00  0.1503E+00  0.3987E+00  0.6059E-01  0.5314E-02
     -1.052  0.1627E+00  0.1026E-01  0.2672E-01  0.8717E-02  0.8642E+00  0.1413E+00  0.4897E+00  0.5832E-01  0.1140E-01
     -0.949  0.1302E+00  0.1024E-01  0.1621E-01  0.1482E-01  0.8205E+00  0.1949E+00  0.4291E+00  0.6270E-01  0.4766E-01
     -0.846  0.1100E+00  0.1312E-01  0.7576E-02  0.2458E-01  0.6364E+00  0.2017E+00  0.2416E+00  0.3941E-01  0.8483E-01
     -0.742  0.8065E-01  0.1549E-01  0.6944E-02  0.2363E-01  0.7301E+00  0.2524E+00  0.3018E+00  0.2896E-01  0.9855E-01
     -0.639  0.4793E-01  0.1621E-01  0.7201E-02  0.1611E-01  0.6183E+00  0.2324E+00  0.3772E+00  0.2224E-01  0.1227E+00
     -0.536  0.3617E-01  0.1933E-01  0.1132E-01  0.1679E-01  0.5118E+00  0.2019E+00  0.3321E+00  0.2443E-01  0.1157E+00
     -0.433  0.2425E-01  0.1715E-01  0.1148E-01  0.1568E-01  0.3917E+00  0.2107E+00  0.2766E+00  0.2321E-01  0.8258E-01
     -0.329  0.1544E-01  0.1739E-01  0.1629E-01  0.1915E-01  0.6075E+00  0.2525E+00  0.2707E+00  0.3767E-01  0.8839E-01
     -0.226  0.1983E-01  0.2815E-01  0.2411E-01  0.2170E-01  0.6067E+00  0.3987E+00  0.4783E+00  0.6534E-01  0.1682E+00
     -0.123  0.1538E-01  0.3037E-01  0.1672E-01  0.1879E-01  0.2977E+00  0.4296E+00  0.7071E+00  0.1218E+00  0.1484E+00
     -0.020  0.2085E-01  0.2146E-01  0.1870E-01  0.2141E-01  0.4649E+00  0.4928E+00  0.5135E+00  0.2338E+00  0.1605E+00
      0.084  0.2299E-01  0.1422E-01  0.1694E-01  0.2153E-01  0.4663E+00  0.4295E+00  0.3879E+00  0.1999E+00  0.2024E+00
      0.187  0.2825E-01  0.1761E-01  0.1191E-01  0.2341E-01  0.4331E+00  0.4358E+00  0.5995E+00  0.1517E+00  0.2022E+00
      0.290  0.4834E-01  0.1720E-01  0.2534E-01  0.2983E-01  0.5229E+00  0.6342E+00  0.5754E+00  0.1832E+00  0.2335E+00
      0.393  0.5556E-01  0.1563E-01  0.4617E-01  0.3987E-01  0.6802E+00  0.7651E+00  0.3383E+00  0.2400E+00  0.3211E+00
      0.497  0.4033E-01  0.1513E-01  0.3494E-01  0.2769E-01  0.6522E+00  0.5426E+00  0.4824E+00  0.2949E+00  0.3889E+00
      0.600  0.3059E-01  0.1373E-01  0.2330E-01  0.1577E-01  0.5990E+00  0.5353E+00  0.6522E+00  0.4262E+00  0.3699E+00
      0.703  0.3530E-01  0.1576E-01  0.3969E-01  0.1886E-01  0.5850E+00  0.7166E+00  0.5246E+00  0.5322E+00  0.4217E+00
      0.806  0.5344E-01  0.2155E-01  0.6332E-01  0.2860E-01  0.4807E+00  0.7794E+00  0.3411E+00  0.7249E+00  0.4455E+00
      0.909  0.4639E-01  0.1728E-01  0.4176E-01  0.2224E-01  0.2384E+00  0.5308E+00  0.3230E+00  0.5379E+00  0.3333E+00
      1.013  0.4951E-01  0.1466E-01  0.4921E-01  0.1702E-01  0.1792E+00  0.4891E+00  0.3527E+00  0.3652E+00  0.3253E+00
      1.116  0.2947E-01  0.1235E-01  0.4358E-01  0.1379E-01  0.1389E+00  0.4656E+00  0.2311E+00  0.4320E+00  0.4140E+00
      1.219  0.1828E-01  0.1409E-01  0.3429E-01  0.1555E-01  0.1544E+00  0.3606E+00  0.2499E+00  0.4123E+00  0.5464E+00
      1.322  0.1311E-01  0.8546E-02  0.2179E-01  0.1023E-01  0.1107E+00  0.1741E+00  0.3121E+00  0.2925E+00  0.6004E+00
      1.426  0.1203E-01  0.3536E-02  0.1168E-01  0.6823E-02  0.5982E-01  0.1254E+00  0.2910E+00  0.3344E+00  0.8164E+00
      1.529  0.2101E-01  0.6425E-02  0.2321E-01  0.1072E-01  0.7552E-01  0.2803E+00  0.3953E+00  0.4710E+00  0.1005E+01
      1.632  0.3926E-01  0.1575E-01  0.4715E-01  0.1707E-01  0.1200E+00  0.4526E+00  0.5591E+00  0.4584E+00  0.1051E+01
      1.735  0.3187E-01  0.1433E-01  0.3397E-01  0.1735E-01  0.9696E-01  0.2498E+00  0.5491E+00  0.2991E+00  0.9130E+00
      1.839  0.1679E-01  0.9096E-02  0.1307E-01  0.1340E-01  0.5456E-01  0.9940E-01  0.3131E+00  0.2838E+00  0.6496E+00
      1.942  0.1772E-01  0.5890E-02  0.1842E-01  0.8851E-02  0.9744E-01  0.2227E+00  0.2880E+00  0.5566E+00  0.8520E+00
      2.045  0.2580E-01  0.5722E-02  0.2995E-01  0.6834E-02  0.1612E+00  0.3351E+00  0.3816E+00  0.5897E+00  0.9492E+00
      2.148  0.1364E-01  0.3668E-02  0.1376E-01  0.3559E-02  0.7339E-01  0.1784E+00  0.1565E+00  0.2882E+00  0.6597E+00
      2.252  0.6813E-02  0.4399E-02  0.7880E-02  0.4518E-02  0.5310E-01  0.2125E+00  0.8290E-01  0.3761E+00  0.5820E+00
      2.355  0.1190E-01  0.5657E-02  0.1501E-01  0.6327E-02  0.1240E+00  0.3534E+00  0.1523E+00  0.8176E+00  0.8856E+00
      2.458  0.1050E-01  0.3258E-02  0.1190E-01  0.4777E-02  0.1613E+00  0.2160E+00  0.1606E+00  0.7276E+00  0.7907E+00
      2.561  0.1121E-01  0.2573E-02  0.6634E-02  0.5988E-02  0.1959E+00  0.1768E+00  0.1756E+00  0.8220E+00  0.6630E+00
      2.665  0.1367E-01  0.2754E-02  0.5951E-02  0.6303E-02  0.2606E+00  0.3299E+00  0.2330E+00  0.1454E+01  0.6656E+00
      2.768  0.3493E-01  0.5264E-02  0.1374E-01  0.8858E-02  0.3031E+00  0.5467E+00  0.2817E+00  0.1640E+01  0.6097E+00
      2.871  0.5603E-01  0.6391E-02  0.1908E-01  0.1161E-01  0.2290E+00  0.4148E+00  0.2285E+00  0.9665E+00  0.3313E+00
      2.974  0.2460E-01  0.2498E-02  0.7576E-02  0.6152E-02  0.8033E-01  0.1669E+00  0.7300E-01  0.8386E+00  0.7354E-01
      3.078  0.2860E-02  0.5999E-03  0.1028E-02  0.9888E-03  0.6956E-02  0.5056E-01  0.5714E-02  0.3001E+00  0.9311E-02
      3.181  0.7620E-02  0.4294E-02  0.4302E-02  0.3179E-02  0.6786E-03  0.3486E-01  0.4828E-02  0.1969E-01  0.1468E-01
      3.284  0.1455E-01  0.9018E-02  0.9024E-02  0.7141E-02  0.1732E-02  0.5228E-01  0.7919E-02  0.1916E-02  0.2370E-01
      3.387  0.1620E-01  0.6130E-02  0.6665E-02  0.3726E-02  0.1040E-02  0.6510E-01  0.1144E-01  0.1277E-02  0.2939E-01
      3.491  0.4792E-01  0.8644E-02  0.1536E-01  0.2266E-02  0.1201E-02  0.1962E+00  0.4527E-01  0.4214E-02  0.7425E-01
      3.594  0.7530E-01  0.1089E-01  0.2790E-01  0.2860E-02  0.2236E-02  0.2830E+00  0.7598E-01  0.9831E-02  0.8871E-01
      3.697  0.5784E-01  0.6315E-02  0.2966E-01  0.2508E-02  0.1662E-02  0.1696E+00  0.5695E-01  0.1588E-01  0.3325E-01
      3.800  0.3959E-01  0.5388E-02  0.2308E-01  0.4051E-02  0.2325E-02  0.8699E-01  0.4242E-01  0.2531E-01  0.8183E-02
      3.904  0.9967E-02  0.1963E-02  0.5790E-02  0.1816E-02  0.1036E-02  0.1740E-01  0.1229E-01  0.1050E-01  0.8452E-03
      4.007  0.3377E-02  0.3188E-03  0.2033E-02  0.3162E-03  0.1400E-03  0.4066E-02  0.3215E-02  0.3947E-02  0.1464E-04
      4.110  0.1707E-01  0.1076E-02  0.1077E-01  0.1085E-02  0.5490E-03  0.1892E-01  0.1473E-01  0.1892E-01  0.2612E-05
      4.213  0.3062E-01  0.1899E-02  0.2242E-01  0.2462E-02  0.1187E-01  0.2217E-01  0.2501E-01  0.2227E-01  0.1921E-03
      4.317  0.7503E-01  0.9994E-02  0.3315E-01  0.1614E-01  0.1165E+00  0.1252E-01  0.6821E-01  0.1419E-01  0.2714E-02
      4.420  0.1087E+00  0.2766E-01  0.2650E-01  0.4205E-01  0.2280E+00  0.5311E-02  0.1081E+00  0.1200E-01  0.1009E-01
      4.523  0.6258E-01  0.2971E-01  0.2464E-01  0.4421E-01  0.1322E+00  0.3963E-02  0.5701E-01  0.1189E-01  0.1580E-01
      4.626  0.5309E-01  0.1627E-01  0.1266E-01  0.3584E-01  0.1015E+00  0.2480E-02  0.3418E-01  0.7169E-02  0.1511E-01
      4.730  0.2769E-01  0.3698E-02  0.2920E-02  0.1322E-01  0.4795E-01  0.3586E-02  0.1672E-01  0.2643E-02  0.5614E-02
      4.833  0.2725E-01  0.3031E-02  0.1329E-01  0.2840E-02  0.4423E-02  0.3536E-01  0.1793E-01  0.9795E-02  0.2077E-02
      4.936  0.4438E-01  0.4987E-02  0.2361E-01  0.3200E-02  0.5536E-03  0.6251E-01  0.2941E-01  0.1705E-01  0.2914E-02
      5.039  0.2292E-01  0.1753E-02  0.1681E-01  0.9836E-03  0.1503E-03  0.3004E-01  0.1380E-01  0.6330E-02  0.1033E-02
      5.143  0.4727E-01  0.1989E-02  0.4357E-01  0.2998E-03  0.3229E-04  0.5647E-01  0.2317E-01  0.6013E-02  0.2035E-02
      5.246  0.5704E-01  0.5605E-02  0.3484E-01  0.8352E-03  0.4140E-03  0.7037E-01  0.1870E-01  0.4489E-02  0.9158E-02
      5.349  0.5300E-01  0.1227E-01  0.1647E-01  0.8858E-02  0.6243E-02  0.6230E-01  0.9191E-02  0.6775E-02  0.1922E-01
      5.452  0.9369E-01  0.2743E-01  0.3578E-01  0.2710E-01  0.1698E-01  0.1047E+00  0.2188E-01  0.1763E-01  0.3616E-01
      5.556  0.8441E-01  0.1885E-01  0.3258E-01  0.1542E-01  0.7780E-02  0.9947E-01  0.2350E-01  0.9169E-02  0.2251E-01
      5.659  0.3797E-01  0.4858E-02  0.1855E-01  0.2802E-02  0.5785E-03  0.3996E-01  0.1377E-01  0.8022E-02  0.4230E-02
      5.762  0.7559E-01  0.8666E-02  0.4406E-01  0.5054E-02  0.3915E-04  0.7292E-01  0.3121E-01  0.2298E-01  0.4591E-02
      5.865  0.5174E-01  0.6065E-02  0.4907E-01  0.3488E-02  0.2704E-04  0.5021E-01  0.2110E-01  0.1457E-01  0.3260E-02
      5.969  0.1792E-01  0.2417E-02  0.5720E-01  0.1984E-02  0.3122E-03  0.1542E-01  0.8959E-02  0.6198E-02  0.6394E-03
      6.072  0.4941E-01  0.1447E-01  0.6118E-01  0.1317E-01  0.2584E-02  0.5656E-01  0.3184E-01  0.8744E-02  0.2209E-02
      6.175  0.7340E-01  0.2000E-01  0.6654E-01  0.1794E-01  0.3700E-02  0.8417E-01  0.4517E-01  0.1039E-01  0.3097E-02
      6.278  0.3070E-01  0.5801E-02  0.1656E-01  0.6262E-02  0.8632E-02  0.2157E-01  0.1240E-01  0.2547E-02  0.9900E-03
      6.382  0.7078E-01  0.7445E-02  0.1438E-02  0.1353E-01  0.4702E-01  0.1496E-02  0.8263E-02  0.8830E-03  0.1623E-02
      6.485  0.8483E-01  0.7910E-02  0.9926E-02  0.1364E-01  0.4636E-01  0.1163E-01  0.1329E-01  0.5324E-02  0.1608E-02
      6.588  0.7178E-01  0.4161E-02  0.3461E-01  0.4193E-02  0.8638E-02  0.4132E-01  0.2233E-01  0.1721E-01  0.4279E-03
      6.691  0.6271E-01  0.6469E-02  0.3057E-01  0.8629E-02  0.1847E-01  0.2801E-01  0.1736E-01  0.1200E-01  0.9057E-03
      6.795  0.8813E-01  0.1339E-01  0.6849E-01  0.2111E-01  0.5018E-01  0.2738E-01  0.1826E-01  0.7958E-02  0.2357E-02
      6.898  0.7084E-01  0.6889E-02  0.7862E-01  0.1612E-01  0.3395E-01  0.3102E-01  0.1348E-01  0.6071E-02  0.3683E-02
      7.001  0.8580E-01  0.3585E-02  0.1606E-01  0.2719E-01  0.4670E-01  0.6550E-02  0.6174E-02  0.2581E-02  0.1066E-01
      7.104  0.5310E-01  0.2084E-02  0.7184E-03  0.1755E-01  0.2984E-01  0.4494E-03  0.2975E-02  0.1257E-02  0.7007E-02
      7.208  0.1722E-01  0.6476E-03  0.3496E-02  0.2459E-02  0.3885E-02  0.3848E-02  0.2429E-02  0.3790E-02  0.8757E-03
      7.311  0.8200E-01  0.3661E-02  0.1530E-01  0.7308E-02  0.1168E-01  0.2055E-01  0.8822E-02  0.1748E-01  0.2801E-02
      7.414  0.1937E+00  0.9227E-02  0.2345E-01  0.2230E-01  0.4190E-01  0.3761E-01  0.8789E-02  0.2839E-01  0.9720E-02
      7.517  0.2040E+00  0.8015E-02  0.4086E-01  0.1761E-01  0.4969E-01  0.4574E-01  0.7124E-02  0.4319E-01  0.6364E-02
      7.621  0.2192E+00  0.9274E-02  0.2958E-01  0.1639E-01  0.5795E-01  0.4391E-01  0.5822E-02  0.4842E-01  0.2828E-02
      7.724  0.1879E+00  0.8040E-02  0.1961E-01  0.8381E-02  0.2859E-01  0.4105E-01  0.6331E-02  0.1999E-01  0.1962E-02
      7.827  0.1057E+00  0.3483E-02  0.3003E-01  0.8981E-03  0.3711E-02  0.3443E-01  0.7432E-02  0.3469E-02  0.8889E-03
      7.930  0.6788E-01  0.2595E-02  0.6356E-01  0.2048E-02  0.3163E-02  0.4024E-01  0.1274E-01  0.2408E-02  0.4025E-03
      8.034  0.6242E-01  0.1085E-01  0.4463E-01  0.1089E-01  0.1534E-01  0.2317E-01  0.1209E-01  0.2427E-02  0.2659E-03
      8.137  0.1231E+00  0.1372E-01  0.3659E-01  0.1446E-01  0.1886E-01  0.2403E-01  0.1646E-01  0.1213E-01  0.7020E-03
      8.240  0.1553E+00  0.1351E-01  0.5098E-01  0.1362E-01  0.9625E-02  0.4270E-01  0.2527E-01  0.2365E-01  0.8815E-03
      8.343  0.4861E-01  0.5788E-02  0.1907E-01  0.5483E-02  0.2227E-02  0.1700E-01  0.1002E-01  0.9660E-02  0.3023E-03
      8.446  0.5992E-01  0.4032E-02  0.1179E-01  0.4780E-02  0.4918E-02  0.1289E-01  0.4992E-02  0.4932E-02  0.2092E-02
      8.550  0.1969E+00  0.2059E-01  0.5053E-01  0.2350E-01  0.1430E-01  0.5179E-01  0.2113E-01  0.1434E-01  0.7727E-02
      8.653  0.1747E+00  0.2859E-01  0.5530E-01  0.2963E-01  0.1767E-01  0.6040E-01  0.2074E-01  0.2190E-01  0.5511E-02
      8.756  0.4716E-01  0.9563E-02  0.1456E-01  0.8209E-02  0.6114E-02  0.1825E-01  0.4044E-02  0.8080E-02  0.1033E-02
      8.859  0.3556E-01  0.9226E-02  0.9404E-02  0.4963E-02  0.3861E-02  0.1380E-01  0.4819E-03  0.3980E-02  0.1070E-02
      8.963  0.2396E-01  0.6305E-02  0.6505E-02  0.3472E-02  0.2669E-02  0.9211E-02  0.2735E-03  0.2651E-02  0.7902E-03
      9.066  0.1555E-01  0.4246E-02  0.1180E-01  0.6626E-02  0.5188E-02  0.4166E-02  0.9276E-03  0.4294E-02  0.1617E-02
      9.169  0.6881E-01  0.2039E-01  0.6333E-01  0.3410E-01  0.2769E-01  0.1760E-01  0.5222E-02  0.1909E-01  0.7433E-02
      9.272  0.9538E-01  0.2804E-01  0.6657E-01  0.4609E-01  0.3956E-01  0.1743E-01  0.7243E-02  0.2158E-01  0.9646E-02
      9.376  0.3698E-01  0.9898E-02  0.1505E-01  0.1631E-01  0.1456E-01  0.3305E-02  0.2638E-02  0.6566E-02  0.3455E-02
      9.479  0.4740E-01  0.8526E-02  0.1264E-01  0.1289E-01  0.9687E-02  0.5525E-03  0.2875E-02  0.2017E-02  0.1407E-02
      9.582  0.1203E+00  0.2685E-01  0.3527E-01  0.5125E-01  0.3179E-01  0.1390E-02  0.7719E-02  0.9195E-02  0.6691E-02
      9.685  0.7502E-01  0.1813E-01  0.2606E-01  0.4713E-01  0.2398E-01  0.2420E-02  0.5834E-02  0.1074E-01  0.8208E-02
      9.789  0.1053E+00  0.1185E-01  0.4219E-01  0.3673E-01  0.1927E-01  0.1019E-01  0.9088E-02  0.7350E-02  0.9820E-02
      9.892  0.1552E+00  0.2321E-01  0.5788E-01  0.7404E-01  0.4164E-01  0.1811E-01  0.1830E-01  0.1683E-01  0.1534E-01
      9.995  0.1855E+00  0.1969E-01  0.4453E-01  0.4164E-01  0.2809E-01  0.1481E-01  0.2919E-01  0.1339E-01  0.6793E-02
     10.098  0.1376E+00  0.1538E-01  0.6644E-01  0.2267E-01  0.1761E-01  0.2432E-01  0.2159E-01  0.6553E-02  0.5148E-02
     10.202  0.9546E-01  0.1025E-01  0.7443E-01  0.1869E-01  0.1081E-01  0.2737E-01  0.2155E-01  0.3251E-02  0.5871E-02
     10.305  0.1107E+00  0.1745E-01  0.4495E-01  0.1740E-01  0.7022E-02  0.2336E-01  0.2533E-01  0.1334E-01  0.1377E-02
     10.408  0.1041E+00  0.3199E-01  0.6030E-01  0.3203E-01  0.9193E-02  0.3368E-01  0.2838E-01  0.2297E-01  0.4295E-03
     10.511  0.1289E+00  0.4666E-01  0.7357E-01  0.5735E-01  0.1971E-01  0.3338E-01  0.3442E-01  0.1966E-01  0.1514E-02