    1    1    1    1
  0.1852200E+02  0.2969848E-09  0.2969848E-09  0.2969848E-09  0.5000000E-15
   1.0000000000000000E-004
  CAR 
 Au, FCC                                 
   11   60    9

  0.6250000E-01  0.6250000E-01  0.6250000E-01  0.3906250E-02
   1       -4.1871
   2        0.3296
   3        0.4077
   4        0.4077
   5        1.6592
   6        1.6592
   7       20.1382
   8       22.3899
   9       23.4825

  0.1875000E+00  0.6250000E-01  0.6250000E-01  0.1171875E-01
   1       -3.5430
   2        0.1517
   3        0.5867
   4        0.6064
   5        1.4874
   6        1.7616
   7       19.3967
   8       20.6321
   9       22.8202

  0.3125000E+00  0.6250000E-01  0.6250000E-01  0.1171875E-01
   1       -2.3424
   2        0.2688
   3        0.6193
   4        0.6557
   5        1.7051
   6        2.2139
   7       14.6361
   8       20.3441
   9       22.2624

  0.4375000E+00  0.6250000E-01  0.6250000E-01  0.1171875E-01
   1       -1.8557
   2        0.3740
   3        0.4659
   4        1.7752
   5        2.3621
   6        3.2037
   7        9.8644
   8       19.5868
   9       20.9783

 -0.4375000E+00  0.6250000E-01  0.6250000E-01  0.1171875E-01
   1       -1.8435
   2        0.2872
   3        0.4141
   4        2.2557
   5        2.7212
   6        4.5145
   7        7.4875
   8       19.3775
   9       21.0153

 -0.3125000E+00  0.6250000E-01  0.6250000E-01  0.1171875E-01
   1       -1.9168
   2        0.4168
   3        0.5527
   4        1.1293
   5        2.4663
   6        2.5353
   7       11.3773
   8       19.9921
   9       21.4878

 -0.1875000E+00  0.6250000E-01  0.6250000E-01  0.1171875E-01
   1       -2.7323
   2        0.1014
   3        0.6522
   4        0.6941
   5        1.6228
   6        1.9445
   7       16.2939
   8       20.8987
   9       22.4167

 -0.6250000E-01  0.6250000E-01  0.6250000E-01  0.1171875E-01
   1       -3.8562
   2        0.1933
   3        0.5346
   4        0.5396
   5        1.5064
   6        1.7393
   7       20.3095
   8       21.2425
   9       22.8979

  0.1875000E+00  0.1875000E+00  0.6250000E-01  0.1171875E-01
   1       -3.2259
   2       -0.0707
   3        0.7752
   4        0.7961
   5        1.2866
   6        1.8894
   7       19.7153
   8       21.0134
   9       21.6278

  0.3125000E+00  0.1875000E+00  0.6250000E-01  0.2343750E-01
   1       -2.1671
   2       -0.3059
   3        0.6119
   4        1.1089
   5        1.5713
   6        2.3045
   7       16.6131
   8       19.0252
   9       21.6297

  0.4375000E+00  0.1875000E+00  0.6250000E-01  0.2343750E-01
   1       -1.4141
   2        0.1674
   3        0.3093
   4        0.9866
   5        2.4332
   6        3.5310
   7       11.7208
   8       18.3805
   9       19.5500

 -0.4375000E+00  0.1875000E+00  0.6250000E-01  0.2343750E-01
   1       -1.3631
   2        0.0144
   3        0.8091
   4        1.2048
   5        2.6650
   6        6.0894
   7        7.5937
   8       17.8683
   9       18.7824

 -0.3125000E+00  0.1875000E+00  0.6250000E-01  0.2343750E-01
   1       -1.3247
   2        0.1206
   3        0.7188
   4        0.9373
   5        2.2723
   6        4.3615
   7       10.3066
   8       17.2193
   9       19.9644

 -0.1875000E+00  0.1875000E+00  0.6250000E-01  0.2343750E-01
   1       -1.7645
   2       -0.1560
   3        0.4750
   4        1.0675
   5        1.4906
   6        2.8296
   7       14.9210
   8       17.6687
   9       21.6952

 -0.6250000E-01  0.1875000E+00  0.6250000E-01  0.2343750E-01
   1       -2.9486
   2       -0.0337
   3        0.6959
   4        0.7948
   5        1.3776
   6        1.9759
   7       18.0099
   8       20.1187
   9       22.4981

  0.3125000E+00  0.3125000E+00  0.6250000E-01  0.1171875E-01
   1       -1.6649
   2       -0.7345
   3        0.9640
   4        1.6047
   5        1.9618
   6        2.3193
   7       16.9269
   8       18.1999
   9       19.0706

  0.4375000E+00  0.3125000E+00  0.6250000E-01  0.2343750E-01
   1       -1.2274
   2       -0.8548
   3        0.9462
   4        1.9390
   5        2.4909
   6        3.6787
   7       13.6410
   8       16.0542
   9       16.9024

 -0.4375000E+00  0.3125000E+00  0.6250000E-01  0.2343750E-01
   1       -1.0560
   2       -0.4402
   3        0.7393
   4        1.6521
   5        2.7330
   6        6.5583
   7        9.5502
   8       14.3243
   9       16.7661

 -0.3125000E+00  0.3125000E+00  0.6250000E-01  0.2343750E-01
   1       -0.7316
   2       -0.1166
   3        0.3638
   4        1.4368
   5        2.3118
   6        6.3807
   7       10.4103
   8       12.8437
   9       18.3317

 -0.1875000E+00  0.3125000E+00  0.6250000E-01  0.2343750E-01
   1       -0.8799
   2       -0.0365
   3        0.1681
   4        1.2355
   5        1.8670
   6        4.3334
   7       12.2525
   8       15.0161
   9       20.1339

 -0.6250000E-01  0.3125000E+00  0.6250000E-01  0.2343750E-01
   1       -1.8632
   2        0.3024
   3        0.4896
   4        0.7525
   5        1.9767
   6        2.7117
   7       13.1121
   8       19.5006
   9       21.1512

  0.4375000E+00  0.4375000E+00  0.6250000E-01  0.1171875E-01
   1       -1.5173
   2       -1.2444
   3        2.3462
   4        2.4215
   5        2.7728
   6        4.2590
   7       12.4413
   8       14.9879
   9       15.4926

 -0.4375000E+00  0.4375000E+00  0.6250000E-01  0.2343750E-01
   1       -1.4201
   2       -1.1689
   3        1.9809
   4        2.3953
   5        2.9247
   6        6.8076
   7        9.9728
   8       13.4837
   9       14.8552

 -0.3125000E+00  0.4375000E+00  0.6250000E-01  0.2343750E-01
   1       -1.0780
   2       -0.5606
   3        0.9940
   4        1.8669
   5        2.6970
   6        8.1458
   7        9.1665
   8       12.1387
   9       16.3549

 -0.1875000E+00  0.4375000E+00  0.6250000E-01  0.2343750E-01
   1       -0.9990
   2       -0.1446
   3        0.7749
   4        1.1362
   5        2.5239
   6        6.7491
   7        8.1962
   8       15.3721
   9       18.4772

 -0.6250000E-01  0.4375000E+00  0.6250000E-01  0.2343750E-01
   1       -1.6663
   2        0.2165
   3        0.5698
   4        1.5978
   5        2.6077
   6        4.4240
   7        8.5928
   8       19.1940
   9       19.9177

 -0.4375000E+00 -0.4375000E+00  0.6250000E-01  0.1171875E-01
   1       -1.6145
   2       -1.3584
   3        2.5956
   4        2.7134
   5        2.9421
   6        5.9079
   7       10.2001
   8       14.2856
   9       14.8570

 -0.3125000E+00 -0.4375000E+00  0.6250000E-01  0.2343750E-01
   1       -1.3199
   2       -1.0592
   3        1.5462
   4        2.2916
   5        2.7528
   6        5.1225
   7       11.8846
   8       14.4156
   9       15.4806

 -0.1875000E+00 -0.4375000E+00  0.6250000E-01  0.2343750E-01
   1       -1.1304
   2       -0.1834
   3        0.4503
   4        1.3148
   5        2.6826
   6        4.8654
   7       10.4971
   8       16.7744
   9       17.6515

 -0.3125000E+00 -0.3125000E+00  0.6250000E-01  0.1171875E-01
   1       -1.4314
   2       -1.0283
   3        1.6415
   4        2.0604
   5        2.5503
   6        2.8306
   7       14.9860
   8       16.4726
   9       16.6584

 -0.1875000E+00 -0.3125000E+00  0.6250000E-01  0.2343750E-01
   1       -1.4593
   2       -0.5937
   3        0.5534
   4        1.5023
   5        2.0615
   6        2.7815
   7       15.1699
   8       17.5864
   9       19.3054

 -0.1875000E+00 -0.1875000E+00  0.6250000E-01  0.1171875E-01
   1       -2.3966
   2       -0.3992
   3        0.8428
   4        1.1622
   5        1.4081
   6        2.0910
   7       18.4532
   8       19.9385
   9       21.1723

  0.1875000E+00  0.1875000E+00  0.1875000E+00  0.3906250E-02
   1       -3.2604
   2        0.1792
   3        0.6077
   4        0.6077
   5        1.6618
   6        1.6618
   7       17.8365
   8       20.9600
   9       23.9710

  0.3125000E+00  0.1875000E+00  0.1875000E+00  0.1171875E-01
   1       -2.4312
   2       -0.0436
   3        0.6440
   4        0.8751
   5        1.3279
   6        2.3180
   7       16.3959
   8       18.9484
   9       22.8172

  0.4375000E+00  0.1875000E+00  0.1875000E+00  0.1171875E-01
   1       -1.3002
   2       -0.0414
   3        0.4104
   4        1.0295
   5        1.5454
   6        3.4976
   7       13.4678
   8       16.3080
   9       21.5829

 -0.4375000E+00  0.1875000E+00  0.1875000E+00  0.1171875E-01
   1       -1.1904
   2        0.0222
   3        0.8980
   4        0.9791
   5        2.3301
   6        5.3928
   7        9.1377
   8       16.1910
   9       20.7017

 -0.3125000E+00  0.1875000E+00  0.1875000E+00  0.1171875E-01
   1       -1.2893
   2       -0.0139
   3        0.8209
   4        0.9712
   5        2.7612
   6        5.4073
   7        8.8385
   8       17.3618
   9       19.0799

 -0.1875000E+00  0.1875000E+00  0.1875000E+00  0.1171875E-01
   1       -1.4574
   2       -0.2859
   3        0.4310
   4        1.1567
   5        2.5533
   6        2.8502
   7       13.3839
   8       18.9411
   9       19.3586

  0.3125000E+00  0.3125000E+00  0.1875000E+00  0.1171875E-01
   1       -2.0566
   2       -0.0727
   3        0.5365
   4        0.8768
   5        1.9992
   6        2.2633
   7       14.8158
   8       20.6204
   9       20.7362

  0.4375000E+00  0.3125000E+00  0.1875000E+00  0.2343750E-01
   1       -1.1375
   2       -0.3141
   3        0.2097
   4        1.3996
   5        1.9210
   6        3.5283
   7       13.5632
   8       16.3394
   9       19.6031

 -0.4375000E+00  0.3125000E+00  0.1875000E+00  0.2343750E-01
   1       -0.5536
   2       -0.2310
   3        0.0095
   4        1.5412
   5        2.2807
   6        5.4794
   7       11.2638
   8       13.8698
   9       17.7251

 -0.3125000E+00  0.3125000E+00  0.1875000E+00  0.2343750E-01
   1       -0.7516
   2       -0.3229
   3        0.4532
   4        1.4505
   5        2.6317
   6        7.3824
   7        8.5608
   8       14.5197
   9       16.3931

 -0.1875000E+00  0.3125000E+00  0.1875000E+00  0.2343750E-01
   1       -0.8868
   2       -0.5066
   3        0.2907
   4        1.7852
   5        2.3526
   6        4.5913
   7       12.3187
   8       15.0498
   9       17.2144

  0.4375000E+00  0.4375000E+00  0.1875000E+00  0.1171875E-01
   1       -1.2225
   2       -0.5571
   3        0.7404
   4        1.5090
   5        2.7554
   6        4.1079
   7       12.0238
   8       16.7025
   9       17.5507

 -0.4375000E+00  0.4375000E+00  0.1875000E+00  0.2343750E-01
   1       -0.9716
   2       -0.7071
   3        0.7318
   4        2.0168
   5        2.6904
   6        6.1003
   7       11.1495
   8       13.7437
   9       15.3068

 -0.3125000E+00  0.4375000E+00  0.1875000E+00  0.2343750E-01
   1       -0.7234
   2       -0.3279
   3        0.3222
   4        1.6534
   5        2.9165
   6        8.5128
   7       10.1159
   8       11.7215
   9       14.1669

 -0.1875000E+00  0.4375000E+00  0.1875000E+00  0.2343750E-01
   1       -0.5706
   2       -0.3348
   3        0.1249
   4        1.6813
   5        2.6616
   6        6.9772
   7       10.5186
   8       12.8518
   9       15.4849

 -0.4375000E+00 -0.4375000E+00  0.1875000E+00  0.1171875E-01
   1       -1.3229
   2       -0.9257
   3        1.6374
   4        2.1647
   5        2.7899
   6        7.4926
   7        9.5207
   8       12.5603
   9       16.0410

 -0.3125000E+00 -0.4375000E+00  0.1875000E+00  0.2343750E-01
   1       -1.0776
   2       -0.8077
   3        1.1106
   4        2.0132
   5        2.9183
   6        7.8968
   7        9.7835
   8       12.6296
   9       14.4664

 -0.3125000E+00 -0.3125000E+00  0.1875000E+00  0.1171875E-01
   1       -1.2554
   2       -0.7981
   3        1.2709
   4        1.8796
   5        2.8280
   6        5.7189
   7       10.7775
   8       14.2242
   9       16.5583

  0.3125000E+00  0.3125000E+00  0.3125000E+00  0.3906250E-02
   1       -2.1686
   2        0.5370
   3        0.5370
   4        0.8296
   5        2.1123
   6        2.1123
   7       12.9234
   8       20.3059
   9       23.1723

  0.4375000E+00  0.3125000E+00  0.3125000E+00  0.1171875E-01
   1       -1.6145
   2        0.3050
   3        0.7006
   4        0.7994
   5        1.9688
   6        3.4004
   7       11.6069
   8       18.3163
   9       20.9526

 -0.4375000E+00  0.3125000E+00  0.3125000E+00  0.1171875E-01
   1       -0.7798
   2        0.0041
   3        0.3515
   4        1.2166
   5        2.0090
   6        5.2445
   7       11.2256
   8       13.8018
   9       20.7204

 -0.3125000E+00  0.3125000E+00  0.3125000E+00  0.1171875E-01
   1       -0.9666
   2       -0.2457
   3        0.7167
   4        1.6248
   5        2.4578
   6        7.3770
   7        9.5973
   8       12.2373
   9       18.1029

  0.4375000E+00  0.4375000E+00  0.3125000E+00  0.1171875E-01
   1       -1.6071
   2        0.2214
   3        0.7033
   4        0.9880
   5        2.6986
   6        3.7572
   7       10.0060
   8       19.5065
   9       20.1056

 -0.4375000E+00  0.4375000E+00  0.3125000E+00  0.2343750E-01
   1       -1.0123
   2       -0.1357
   3        0.5938
   4        1.1823
   5        2.5352
   6        5.7434
   7        9.2311
   8       16.1779
   9       17.8637

 -0.3125000E+00  0.4375000E+00  0.3125000E+00  0.2343750E-01
   1       -0.6993
   2       -0.2875
   3        0.3505
   4        1.6035
   5        2.6613
   6        7.7110
   7        9.8434
   8       12.2076
   9       15.9466

 -0.4375000E+00 -0.4375000E+00  0.3125000E+00  0.1171875E-01
   1       -1.0543
   2       -0.1898
   3        0.7354
   4        1.3136
   5        2.6519
   6        7.2852
   7        8.0243
   8       14.7565
   9       18.4199

  0.4375000E+00  0.4375000E+00  0.4375000E+00  0.3906250E-02
   1       -1.9366
   2        0.3669
   3        0.3669
   4        2.6337
   5        2.6337
   6        3.2491
   7        8.4440
   8       19.4504
   9       21.7712

 -0.4375000E+00  0.4375000E+00  0.4375000E+00  0.1171875E-01
   1       -1.5842
   2        0.1531
   3        0.6008
   4        1.6504
   5        2.6073
   6        5.4352
   7        7.5645
   8       18.4644
   9       20.2601
