       N       E                     dE             d eps       ncg     rms          rms(c)
DAV:   1     0.443325309922E+02    0.44333E+02   -0.46209E+03  1296   0.806E+02

DAV:   2    -0.280001507655E+01   -0.47133E+02   -0.42754E+02  1093   0.209E+02

DAV:   3    -0.345156569017E+01   -0.65155E+00   -0.65122E+00  1294   0.298E+01

DAV:   4    -0.345318159291E+01   -0.16159E-02   -0.16159E-02  1278   0.138E+00

DAV:   5    -0.345319441504E+01   -0.12822E-04   -0.12822E-04  1274   0.114E-01    0.285E+00
RMM:   6    -0.321661621218E+01    0.23658E+00   -0.46737E-01  1082   0.929E+00    0.736E-01
RMM:   7    -0.320159524202E+01    0.15021E-01   -0.27316E-02  1127   0.180E+00    0.303E-01
RMM:   8    -0.319862161124E+01    0.29736E-02   -0.14041E-03  1137   0.688E-01    0.189E-02
RMM:   9    -0.319863327040E+01   -0.11659E-04   -0.39430E-05   687   0.776E-02

   1 F= -.31986333E+01 E0= -.31976437E+01  d E =-.197911E-02

