PROCAR lm decomposed
# of k-points:   60         # of bands:   9         # of ions:   1

 k-point    1 :    0.06250000 0.06250000 0.06250000     weight = 0.00390625

band   1 # energy   -4.18713668 # occ.  2.00000000

ion      s     py     pz     px    dxy    dyz    dz2    dxz    dx2    tot
  1  0.565  0.002  0.002  0.002  0.000  0.000  0.000  0.000  0.000  0.570

band   2 # energy    0.32959685 # occ.  2.00000000

ion      s     py     pz     px    dxy    dyz    dz2    dxz    dx2    tot
  1  0.000  0.000  0.000  0.000  0.306  0.306  0.000  0.306  0.000  0.918

band   3 # energy    0.40770609 # occ.  2.00000000

ion      s     py     pz     px    dxy    dyz    dz2    dxz    dx2    tot
  1  0.000  0.000  0.000  0.000  0.482  0.001  0.001  0.437  0.000  0.922

band   4 # energy    0.40770634 # occ.  2.00000000

ion      s     py     pz     px    dxy    dyz    dz2    dxz    dx2    tot
  1  0.000  0.000  0.000  0.000  0.132  0.612  0.000  0.176  0.001  0.922

band   5 # energy    1.65915418 # occ.  2.00000000

ion      s     py     pz     px    dxy    dyz    dz2    dxz    dx2    tot
  1  0.000  0.000  0.000  0.000  0.000  0.001  0.278  0.000  0.677  0.956

band   6 # energy    1.65915431 # occ.  2.00000000

ion      s     py     pz     px    dxy    dyz    dz2    dxz    dx2    tot
  1  0.000  0.000  0.000  0.000  0.000  0.000  0.677  0.001  0.278  0.956

band   7 # energy   20.13821541 # occ.  0.00000000

ion      s     py     pz     px    dxy    dyz    dz2    dxz    dx2    tot
  1  0.000  0.001  0.001  0.001  0.007  0.007  0.000  0.007  0.000  0.024

band   8 # energy   22.38990576 # occ.  0.00000000

ion      s     py     pz     px    dxy    dyz    dz2    dxz    dx2    tot
  1  0.022  0.073  0.073  0.073  0.008  0.008  0.000  0.008  0.000  0.265

band   9 # energy   23.48253361 # occ.  0.00000000

ion      s     py     pz     px    dxy    dyz    dz2    dxz    dx2    tot
  1  0.000  0.015  0.141  0.086  0.006  0.004  0.005  0.001  0.001  0.259


 k-point    2 :    0.18750000 0.06250000 0.06250000     weight = 0.01171875

band   1 # energy   -3.54300907 # occ.  2.00000000

ion      s     py     pz     px    dxy    dyz    dz2    dxz    dx2    tot
  1  0.535  0.014  0.014  0.001  0.001  0.007  0.000  0.001  0.001  0.573

band   2 # energy    0.15172993 # occ.  2.00000000

ion      s     py     pz     px    dxy    dyz    dz2    dxz    dx2    tot
  1  0.001  0.001  0.001  0.005  0.434  0.025  0.000  0.434  0.000  0.901

band   3 # energy    0.58669113 # occ.  2.00000000

ion      s     py     pz     px    dxy    dyz    dz2    dxz    dx2    tot
  1  0.000  0.000  0.000  0.000  0.454  0.000  0.012  0.454  0.004  0.925

band   4 # energy    0.60641432 # occ.  2.00000000

ion      s     py     pz     px    dxy    dyz    dz2    dxz    dx2    tot
  1  0.001  0.002  0.002  0.000  0.013  0.818  0.018  0.013  0.054  0.921

band   5 # energy    1.48742381 # occ.  2.00000000

ion      s     py     pz     px    dxy    dyz    dz2    dxz    dx2    tot
  1  0.000  0.000  0.000  0.000  0.008  0.000  0.697  0.008  0.232  0.946

band   6 # energy    1.76163672 # occ.  2.00000000

ion      s     py     pz     px    dxy    dyz    dz2    dxz    dx2    tot
  1  0.001  0.000  0.000  0.000  0.001  0.070  0.220  0.001  0.660  0.955

band   7 # energy   19.39674371 # occ.  0.00000000

ion      s     py     pz     px    dxy    dyz    dz2    dxz    dx2    tot
  1  0.058  0.080  0.080  0.060  0.040  0.050  0.001  0.040  0.003  0.411

band   8 # energy   20.63205592 # occ.  0.00000000

ion      s     py     pz     px    dxy    dyz    dz2    dxz    dx2    tot
  1  0.016  0.023  0.023  0.019  0.041  0.006  0.001  0.041  0.003  0.173

band   9 # energy   22.82018322 # occ.  0.00000000

ion      s     py     pz     px    dxy    dyz    dz2    dxz    dx2    tot
  1  0.001  0.013  0.014  0.260  0.017  0.020  0.001  0.017  0.004  0.346


 k-point    3 :    0.31250000 0.06250000 0.06250000     weight = 0.01171875

band   1 # energy   -2.34240446 # occ.  2.00000000

ion      s     py     pz     px    dxy    dyz    dz2    dxz    dx2    tot
  1  0.409  0.022  0.022  0.005  0.048  0.073  0.000  0.048  0.001  0.628

band   2 # energy    0.26884856 # occ.  2.00000000

ion      s     py     pz     px    dxy    dyz    dz2    dxz    dx2    tot
  1  0.045  0.014  0.014  0.023  0.367  0.003  0.001  0.367  0.003  0.836

band   3 # energy    0.61929514 # occ.  2.00000000

ion      s     py     pz     px    dxy    dyz    dz2    dxz    dx2    tot
  1  0.008  0.006  0.006  0.001  0.004  0.495  0.094  0.004  0.283  0.902

band   4 # energy    0.65568626 # occ.  2.00000000

ion      s     py     pz     px    dxy    dyz    dz2    dxz    dx2    tot
  1  0.000  0.000  0.000  0.000  0.283  0.000  0.268  0.283  0.089  0.922

band   5 # energy    1.70505202 # occ.  2.00000000

ion      s     py     pz     px    dxy    dyz    dz2    dxz    dx2    tot
  1  0.000  0.001  0.001  0.000  0.184  0.000  0.433  0.184  0.144  0.946

band   6 # energy    2.21388644 # occ.  2.00000000

ion      s     py     pz     px    dxy    dyz    dz2    dxz    dx2    tot
  1  0.012  0.004  0.004  0.000  0.014  0.344  0.140  0.014  0.420  0.951

band   7 # energy   14.63608898 # occ.  0.00000000

ion      s     py     pz     px    dxy    dyz    dz2    dxz    dx2    tot
  1  0.151  0.092  0.092  0.095  0.057  0.058  0.001  0.057  0.002  0.605

band   8 # energy   20.34410712 # occ.  0.00000000

ion      s     py     pz     px    dxy    dyz    dz2    dxz    dx2    tot
  1  0.006  0.005  0.005  0.089  0.062  0.002  0.003  0.062  0.010  0.245

band   9 # energy   22.26238235 # occ.  0.00000000

ion      s     py     pz     px    dxy    dyz    dz2    dxz    dx2    tot
  1  0.009  0.084  0.085  0.185  0.012  0.054  0.000  0.012  0.001  0.443


 k-point    4 :    0.43750000 0.06250000 0.06250000     weight = 0.01171875

band   1 # energy   -1.85573368 # occ.  2.00000000

ion      s     py     pz     px    dxy    dyz    dz2    dxz    dx2    tot
  1  0.206  0.006  0.006  0.000  0.175  0.186  0.000  0.175  0.000  0.753

band   2 # energy    0.37395557 # occ.  2.00000000

ion      s     py     pz     px    dxy    dyz    dz2    dxz    dx2    tot
  1  0.000  0.000  0.000  0.001  0.066  0.279  0.125  0.066  0.374  0.910

band   3 # energy    0.46589979 # occ.  2.00000000

ion      s     py     pz     px    dxy    dyz    dz2    dxz    dx2    tot
  1  0.000  0.000  0.000  0.000  0.191  0.000  0.399  0.191  0.133  0.915

band   4 # energy    1.77516095 # occ.  2.00000000

ion      s     py     pz     px    dxy    dyz    dz2    dxz    dx2    tot
  1  0.070  0.046  0.046  0.047  0.163  0.040  0.046  0.163  0.139  0.761

band   5 # energy    2.36210622 # occ.  2.00000000

ion      s     py     pz     px    dxy    dyz    dz2    dxz    dx2    tot
  1  0.000  0.001  0.001  0.000  0.282  0.000  0.299  0.282  0.100  0.964

band   6 # energy    3.20374933 # occ.  2.00000000

ion      s     py     pz     px    dxy    dyz    dz2    dxz    dx2    tot
  1  0.083  0.039  0.039  0.024  0.001  0.401  0.062  0.001  0.187  0.836

band   7 # energy    9.86440919 # occ.  0.00000000

ion      s     py     pz     px    dxy    dyz    dz2    dxz    dx2    tot
  1  0.280  0.062  0.062  0.077  0.082  0.062  0.001  0.082  0.003  0.710

band   8 # energy   19.58677808 # occ.  0.00000000

ion      s     py     pz     px    dxy    dyz    dz2    dxz    dx2    tot
  1  0.002  0.000  0.000  0.060  0.021  0.002  0.005  0.021  0.014  0.126

band   9 # energy   20.97834997 # occ.  0.00000000

ion      s     py     pz     px    dxy    dyz    dz2    dxz    dx2    tot
  1  0.014  0.090  0.089  0.241  0.018  0.005  0.001  0.018  0.002  0.479


 k-point    5 :   -0.43750000 0.06250000 0.06250000     weight = 0.01171875

band   1 # energy   -1.84351734 # occ.  2.00000000

ion      s     py     pz     px    dxy    dyz    dz2    dxz    dx2    tot
  1  0.166  0.000  0.000  0.003  0.196  0.216  0.000  0.196  0.000  0.778

band   2 # energy    0.28721127 # occ.  2.00000000

ion      s     py     pz     px    dxy    dyz    dz2    dxz    dx2    tot
  1  0.000  0.000  0.000  0.000  0.066  0.222  0.138  0.066  0.413  0.906

band   3 # energy    0.41413555 # occ.  2.00000000

ion      s     py     pz     px    dxy    dyz    dz2    dxz    dx2    tot
  1  0.000  0.000  0.000  0.000  0.186  0.000  0.405  0.186  0.135  0.913

band   4 # energy    2.25571049 # occ.  2.00000000

ion      s     py     pz     px    dxy    dyz    dz2    dxz    dx2    tot
  1  0.002  0.024  0.024  0.022  0.071  0.368  0.074  0.071  0.223  0.880

band   5 # energy    2.72119453 # occ.  2.00000000

ion      s     py     pz     px    dxy    dyz    dz2    dxz    dx2    tot
  1  0.000  0.000  0.000  0.000  0.291  0.000  0.295  0.291  0.098  0.976

band   6 # energy    4.51454638 # occ.  1.47791042

ion      s     py     pz     px    dxy    dyz    dz2    dxz    dx2    tot
  1  0.023  0.115  0.115  0.130  0.044  0.024  0.020  0.044  0.061  0.578

band   7 # energy    7.48752442 # occ.  0.00000000

ion      s     py     pz     px    dxy    dyz    dz2    dxz    dx2    tot
  1  0.450  0.012  0.012  0.005  0.111  0.131  0.000  0.111  0.000  0.832

band   8 # energy   19.37747750 # occ.  0.00000000

ion      s     py     pz     px    dxy    dyz    dz2    dxz    dx2    tot
  1  0.000  0.002  0.002  0.023  0.002  0.008  0.005  0.002  0.014  0.057

band   9 # energy   21.01532996 # occ.  0.00000000

ion      s     py     pz     px    dxy    dyz    dz2    dxz    dx2    tot
  1  0.017  0.082  0.078  0.293  0.009  0.010  0.004  0.009  0.011  0.513


 k-point    6 :   -0.31250000 0.06250000 0.06250000     weight = 0.01171875

band   1 # energy   -1.91677726 # occ.  2.00000000

ion      s     py     pz     px    dxy    dyz    dz2    dxz    dx2    tot
  1  0.254  0.003  0.003  0.016  0.143  0.157  0.001  0.143  0.002  0.723

band   2 # energy    0.41680769 # occ.  2.00000000

ion      s     py     pz     px    dxy    dyz    dz2    dxz    dx2    tot
  1  0.001  0.000  0.000  0.000  0.083  0.244  0.125  0.083  0.375  0.912

band   3 # energy    0.55266359 # occ.  2.00000000

ion      s     py     pz     px    dxy    dyz    dz2    dxz    dx2    tot
  1  0.000  0.001  0.001  0.000  0.228  0.000  0.345  0.228  0.115  0.917

band   4 # energy    1.12928579 # occ.  2.00000000

ion      s     py     pz     px    dxy    dyz    dz2    dxz    dx2    tot
  1  0.094  0.042  0.042  0.040  0.014  0.389  0.029  0.014  0.088  0.752

band   5 # energy    2.46626893 # occ.  2.00000000

ion      s     py     pz     px    dxy    dyz    dz2    dxz    dx2    tot
  1  0.000  0.001  0.001  0.000  0.243  0.000  0.361  0.243  0.120  0.968

band   6 # energy    2.53525848 # occ.  2.00000000

ion      s     py     pz     px    dxy    dyz    dz2    dxz    dx2    tot
  1  0.056  0.012  0.012  0.029  0.192  0.089  0.076  0.192  0.229  0.886

band   7 # energy   11.37734554 # occ.  0.00000000

ion      s     py     pz     px    dxy    dyz    dz2    dxz    dx2    tot
  1  0.230  0.085  0.085  0.072  0.062  0.075  0.001  0.062  0.002  0.674

band   8 # energy   19.99210676 # occ.  0.00000000

ion      s     py     pz     px    dxy    dyz    dz2    dxz    dx2    tot
  1  0.000  0.007  0.007  0.005  0.002  0.032  0.004  0.002  0.012  0.071

band   9 # energy   21.48781806 # occ.  0.00000000

ion      s     py     pz     px    dxy    dyz    dz2    dxz    dx2    tot
  1  0.000  0.235  0.235  0.000  0.042  0.000  0.010  0.042  0.003  0.566


 k-point    7 :   -0.18750000 0.06250000 0.06250000     weight = 0.01171875

band   1 # energy   -2.73225231 # occ.  2.00000000

ion      s     py     pz     px    dxy    dyz    dz2    dxz    dx2    tot
  1  0.471  0.009  0.009  0.031  0.027  0.018  0.001  0.027  0.003  0.595

band   2 # energy    0.10144769 # occ.  2.00000000

ion      s     py     pz     px    dxy    dyz    dz2    dxz    dx2    tot
  1  0.020  0.010  0.010  0.007  0.091  0.637  0.000  0.091  0.000  0.866

band   3 # energy    0.65223384 # occ.  2.00000000

ion      s     py     pz     px    dxy    dyz    dz2    dxz    dx2    tot
  1  0.001  0.001  0.001  0.002  0.223  0.162  0.076  0.223  0.228  0.917

band   4 # energy    0.69407196 # occ.  2.00000000

ion      s     py     pz     px    dxy    dyz    dz2    dxz    dx2    tot
  1  0.000  0.001  0.001  0.000  0.353  0.000  0.161  0.353  0.054  0.923

band   5 # energy    1.62276245 # occ.  2.00000000

ion      s     py     pz     px    dxy    dyz    dz2    dxz    dx2    tot
  1  0.008  0.000  0.000  0.004  0.108  0.082  0.157  0.108  0.470  0.938

band   6 # energy    1.94449673 # occ.  2.00000000

ion      s     py     pz     px    dxy    dyz    dz2    dxz    dx2    tot
  1  0.000  0.001  0.001  0.000  0.111  0.000  0.551  0.111  0.184  0.957

band   7 # energy   16.29394351 # occ.  0.00000000

ion      s     py     pz     px    dxy    dyz    dz2    dxz    dx2    tot
  1  0.116  0.097  0.097  0.086  0.055  0.052  0.001  0.055  0.002  0.560

band   8 # energy   20.89866272 # occ.  0.00000000

ion      s     py     pz     px    dxy    dyz    dz2    dxz    dx2    tot
  1  0.005  0.005  0.005  0.002  0.010  0.077  0.002  0.010  0.007  0.123

band   9 # energy   22.41670967 # occ.  0.00000000

ion      s     py     pz     px    dxy    dyz    dz2    dxz    dx2    tot
  1  0.000  0.206  0.205  0.000  0.075  0.000  0.011  0.075  0.004  0.575


 k-point    8 :   -0.06250000 0.06250000 0.06250000     weight = 0.01171875

band   1 # energy   -3.85622250 # occ.  2.00000000

ion      s     py     pz     px    dxy    dyz    dz2    dxz    dx2    tot
  1  0.551  0.002  0.002  0.014  0.001  0.000  0.000  0.001  0.001  0.570

band   2 # energy    0.19331222 # occ.  2.00000000

ion      s     py     pz     px    dxy    dyz    dz2    dxz    dx2    tot
  1  0.000  0.001  0.001  0.000  0.047  0.814  0.000  0.047  0.000  0.910

band   3 # energy    0.53457681 # occ.  2.00000000

ion      s     py     pz     px    dxy    dyz    dz2    dxz    dx2    tot
  1  0.000  0.001  0.001  0.001  0.408  0.097  0.002  0.408  0.005  0.922

band   4 # energy    0.53960473 # occ.  2.00000000

ion      s     py     pz     px    dxy    dyz    dz2    dxz    dx2    tot
  1  0.000  0.001  0.001  0.000  0.456  0.000  0.007  0.456  0.002  0.923

band   5 # energy    1.50635555 # occ.  2.00000000

ion      s     py     pz     px    dxy    dyz    dz2    dxz    dx2    tot
  1  0.001  0.000  0.000  0.000  0.003  0.001  0.235  0.003  0.705  0.948

band   6 # energy    1.73929640 # occ.  2.00000000

ion      s     py     pz     px    dxy    dyz    dz2    dxz    dx2    tot
  1  0.000  0.000  0.000  0.000  0.005  0.000  0.711  0.005  0.237  0.958

band   7 # energy   20.30948934 # occ.  0.00000000

ion      s     py     pz     px    dxy    dyz    dz2    dxz    dx2    tot
  1  0.005  0.016  0.016  0.008  0.016  0.062  0.000  0.016  0.000  0.139

band   8 # energy   21.24251497 # occ.  0.00000000

ion      s     py     pz     px    dxy    dyz    dz2    dxz    dx2    tot
  1  0.043  0.047  0.047  0.085  0.013  0.000  0.002  0.013  0.006  0.258

band   9 # energy   22.89794155 # occ.  0.00000000

ion      s     py     pz     px    dxy    dyz    dz2    dxz    dx2    tot
  1  0.000  0.148  0.156  0.000  0.040  0.000  0.003  0.041  0.001  0.389


 k-point    9 :    0.18750000 0.18750000 0.06250000     weight = 0.01171875

band   1 # energy   -3.22587896 # occ.  2.00000000

ion      s     py     pz     px    dxy    dyz    dz2    dxz    dx2    tot
  1  0.518  0.001  0.038  0.001  0.000  0.002  0.010  0.002  0.000  0.573

band   2 # energy   -0.07071624 # occ.  2.00000000

ion      s     py     pz     px    dxy    dyz    dz2    dxz    dx2    tot
  1  0.000  0.001  0.000  0.001  0.867  0.014  0.000  0.014  0.000  0.898

band   3 # energy    0.77520691 # occ.  2.00000000

ion      s     py     pz     px    dxy    dyz    dz2    dxz    dx2    tot
  1  0.000  0.002  0.000  0.002  0.029  0.398  0.093  0.398  0.000  0.923

band   4 # energy    0.79610814 # occ.  2.00000000

ion      s     py     pz     px    dxy    dyz    dz2    dxz    dx2    tot
  1  0.000  0.003  0.000  0.003  0.000  0.446  0.000  0.446  0.028  0.925

band   5 # energy    1.28660944 # occ.  2.00000000

ion      s     py     pz     px    dxy    dyz    dz2    dxz    dx2    tot
  1  0.008  0.000  0.003  0.000  0.003  0.044  0.829  0.044  0.000  0.931

band   6 # energy    1.88942770 # occ.  2.00000000

ion      s     py     pz     px    dxy    dyz    dz2    dxz    dx2    tot
  1  0.000  0.000  0.000  0.000  0.000  0.014  0.000  0.014  0.931  0.960

band   7 # energy   19.71531213 # occ.  0.00000000

ion      s     py     pz     px    dxy    dyz    dz2    dxz    dx2    tot
  1  0.056  0.089  0.059  0.089  0.039  0.043  0.013  0.043  0.000  0.432

band   8 # energy   21.01343590 # occ.  0.00000000

ion      s     py     pz     px    dxy    dyz    dz2    dxz    dx2    tot
  1  0.017  0.000  0.019  0.000  0.114  0.000  0.013  0.000  0.000  0.165

band   9 # energy   21.62775922 # occ.  0.00000000

ion      s     py     pz     px    dxy    dyz    dz2    dxz    dx2    tot
  1  0.000  0.188  0.000  0.187  0.000  0.072  0.000  0.072  0.003  0.521


 k-point   10 :    0.31250000 0.18750000 0.06250000     weight = 0.02343750

band   1 # energy   -2.16705032 # occ.  2.00000000

ion      s     py     pz     px    dxy    dyz    dz2    dxz    dx2    tot
  1  0.431  0.009  0.060  0.001  0.006  0.038  0.047  0.006  0.000  0.598

band   2 # energy   -0.30593770 # occ.  2.00000000

ion      s     py     pz     px    dxy    dyz    dz2    dxz    dx2    tot
  1  0.004  0.001  0.001  0.008  0.800  0.002  0.002  0.058  0.000  0.876

band   3 # energy    0.61190992 # occ.  2.00000000

ion      s     py     pz     px    dxy    dyz    dz2    dxz    dx2    tot
  1  0.003  0.004  0.001  0.000  0.011  0.334  0.503  0.017  0.036  0.908

band   4 # energy    1.10891879 # occ.  2.00000000

ion      s     py     pz     px    dxy    dyz    dz2    dxz    dx2    tot
  1  0.002  0.001  0.001  0.004  0.042  0.105  0.034  0.602  0.137  0.928

band   5 # energy    1.57125586 # occ.  2.00000000

ion      s     py     pz     px    dxy    dyz    dz2    dxz    dx2    tot
  1  0.024  0.003  0.011  0.002  0.025  0.142  0.274  0.228  0.210  0.919

band   6 # energy    2.30448576 # occ.  2.00000000

ion      s     py     pz     px    dxy    dyz    dz2    dxz    dx2    tot
  1  0.015  0.003  0.004  0.000  0.000  0.302  0.052  0.004  0.574  0.954

band   7 # energy   16.61310237 # occ.  0.00000000

ion      s     py     pz     px    dxy    dyz    dz2    dxz    dx2    tot
  1  0.127  0.148  0.085  0.071  0.029  0.062  0.009  0.031  0.004  0.566

band   8 # energy   19.02519411 # occ.  0.00000000

ion      s     py     pz     px    dxy    dyz    dz2    dxz    dx2    tot
  1  0.014  0.053  0.012  0.271  0.084  0.019  0.004  0.101  0.005  0.562

band   9 # energy   21.62966407 # occ.  0.00000000

ion      s     py     pz     px    dxy    dyz    dz2    dxz    dx2    tot
  1  0.012  0.026  0.085  0.013  0.014  0.004  0.146  0.003  0.000  0.303


 k-point   11 :    0.43750000 0.18750000 0.06250000     weight = 0.02343750

band   1 # energy   -1.41407466 # occ.  2.00000000

ion      s     py     pz     px    dxy    dyz    dz2    dxz    dx2    tot
  1  0.202  0.003  0.032  0.000  0.225  0.138  0.048  0.090  0.000  0.739

band   2 # energy    0.16735627 # occ.  2.00000000

ion      s     py     pz     px    dxy    dyz    dz2    dxz    dx2    tot
  1  0.010  0.018  0.005  0.012  0.062  0.071  0.599  0.045  0.021  0.844

band   3 # energy    0.30932764 # occ.  2.00000000

ion      s     py     pz     px    dxy    dyz    dz2    dxz    dx2    tot
  1  0.055  0.005  0.023  0.014  0.490  0.201  0.031  0.000  0.028  0.846

band   4 # energy    0.98660596 # occ.  2.00000000

ion      s     py     pz     px    dxy    dyz    dz2    dxz    dx2    tot
  1  0.005  0.003  0.004  0.001  0.050  0.073  0.031  0.314  0.436  0.918

band   5 # energy    2.43315813 # occ.  2.00000000

ion      s     py     pz     px    dxy    dyz    dz2    dxz    dx2    tot
  1  0.007  0.001  0.007  0.004  0.026  0.051  0.051  0.432  0.374  0.952

band   6 # energy    3.53097261 # occ.  2.00000000

ion      s     py     pz     px    dxy    dyz    dz2    dxz    dx2    tot
  1  0.118  0.019  0.049  0.009  0.008  0.397  0.142  0.032  0.085  0.860

band   7 # energy   11.72079080 # occ.  0.00000000

ion      s     py     pz     px    dxy    dyz    dz2    dxz    dx2    tot
  1  0.220  0.097  0.071  0.102  0.070  0.036  0.008  0.046  0.005  0.654

band   8 # energy   18.38053246 # occ.  0.00000000

ion      s     py     pz     px    dxy    dyz    dz2    dxz    dx2    tot
  1  0.028  0.080  0.030  0.280  0.058  0.011  0.002  0.059  0.026  0.574

band   9 # energy   19.54999052 # occ.  0.00000000

ion      s     py     pz     px    dxy    dyz    dz2    dxz    dx2    tot
  1  0.028  0.011  0.174  0.006  0.000  0.015  0.155  0.003  0.000  0.393


 k-point   12 :   -0.43750000 0.18750000 0.06250000     weight = 0.02343750

band   1 # energy   -1.36314054 # occ.  2.00000000

ion      s     py     pz     px    dxy    dyz    dz2    dxz    dx2    tot
  1  0.128  0.000  0.012  0.006  0.299  0.199  0.009  0.137  0.001  0.791

band   2 # energy    0.01443473 # occ.  2.00000000

ion      s     py     pz     px    dxy    dyz    dz2    dxz    dx2    tot
  1  0.000  0.007  0.000  0.001  0.095  0.141  0.551  0.015  0.066  0.877

band   3 # energy    0.80908347 # occ.  2.00000000

ion      s     py     pz     px    dxy    dyz    dz2    dxz    dx2    tot
  1  0.000  0.000  0.000  0.005  0.002  0.082  0.080  0.243  0.505  0.916

band   4 # energy    1.20478824 # occ.  2.00000000

ion      s     py     pz     px    dxy    dyz    dz2    dxz    dx2    tot
  1  0.004  0.030  0.034  0.028  0.360  0.178  0.132  0.029  0.033  0.829

band   5 # energy    2.66504240 # occ.  2.00000000

ion      s     py     pz     px    dxy    dyz    dz2    dxz    dx2    tot
  1  0.001  0.000  0.000  0.000  0.034  0.172  0.029  0.425  0.311  0.973

band   6 # energy    6.08942471 # occ.  0.00000000

ion      s     py     pz     px    dxy    dyz    dz2    dxz    dx2    tot
  1  0.072  0.081  0.132  0.080  0.016  0.131  0.110  0.035  0.011  0.667

band   7 # energy    7.59367109 # occ.  0.00000000

ion      s     py     pz     px    dxy    dyz    dz2    dxz    dx2    tot
  1  0.417  0.026  0.008  0.045  0.144  0.054  0.005  0.078  0.005  0.781

band   8 # energy   17.86831397 # occ.  0.00000000

ion      s     py     pz     px    dxy    dyz    dz2    dxz    dx2    tot
  1  0.055  0.017  0.256  0.081  0.003  0.034  0.080  0.033  0.004  0.563

band   9 # energy   18.78236199 # occ.  0.00000000

ion      s     py     pz     px    dxy    dyz    dz2    dxz    dx2    tot
  1  0.010  0.085  0.000  0.200  0.042  0.007  0.041  0.009  0.056  0.450


 k-point   13 :   -0.31250000 0.18750000 0.06250000     weight = 0.02343750

band   1 # energy   -1.32467538 # occ.  2.00000000

ion      s     py     pz     px    dxy    dyz    dz2    dxz    dx2    tot
  1  0.166  0.006  0.004  0.019  0.240  0.204  0.000  0.123  0.006  0.767

band   2 # energy    0.12062805 # occ.  2.00000000

ion      s     py     pz     px    dxy    dyz    dz2    dxz    dx2    tot
  1  0.000  0.004  0.001  0.000  0.219  0.118  0.452  0.007  0.086  0.888

band   3 # energy    0.71878991 # occ.  2.00000000

ion      s     py     pz     px    dxy    dyz    dz2    dxz    dx2    tot
  1  0.023  0.020  0.027  0.013  0.078  0.110  0.019  0.204  0.349  0.842

band   4 # energy    0.93732013 # occ.  2.00000000

ion      s     py     pz     px    dxy    dyz    dz2    dxz    dx2    tot
  1  0.021  0.013  0.006  0.024  0.005  0.299  0.215  0.086  0.199  0.868

band   5 # energy    2.27234653 # occ.  2.00000000

ion      s     py     pz     px    dxy    dyz    dz2    dxz    dx2    tot
  1  0.001  0.000  0.002  0.004  0.027  0.128  0.057  0.464  0.271  0.954

band   6 # energy    4.36151334 # occ.  1.99495806

ion      s     py     pz     px    dxy    dyz    dz2    dxz    dx2    tot
  1  0.162  0.034  0.015  0.056  0.368  0.001  0.168  0.009  0.010  0.822

band   7 # energy   10.30661305 # occ.  0.00000000

ion      s     py     pz     px    dxy    dyz    dz2    dxz    dx2    tot
  1  0.250  0.073  0.102  0.061  0.026  0.081  0.028  0.061  0.000  0.683

band   8 # energy   17.21932344 # occ.  0.00000000

ion      s     py     pz     px    dxy    dyz    dz2    dxz    dx2    tot
  1  0.043  0.049  0.270  0.041  0.003  0.070  0.045  0.058  0.000  0.580

band   9 # energy   19.96440540 # occ.  0.00000000

ion      s     py     pz     px    dxy    dyz    dz2    dxz    dx2    tot
  1  0.020  0.008  0.009  0.171  0.027  0.000  0.038  0.002  0.068  0.345


 k-point   14 :   -0.18750000 0.18750000 0.06250000     weight = 0.02343750

band   1 # energy   -1.76448655 # occ.  2.00000000

ion      s     py     pz     px    dxy    dyz    dz2    dxz    dx2    tot
  1  0.381  0.022  0.000  0.050  0.120  0.019  0.009  0.013  0.012  0.627

band   2 # energy   -0.15595635 # occ.  2.00000000

ion      s     py     pz     px    dxy    dyz    dz2    dxz    dx2    tot
  1  0.012  0.003  0.020  0.003  0.002  0.636  0.000  0.186  0.001  0.863

band   3 # energy    0.47504753 # occ.  2.00000000

ion      s     py     pz     px    dxy    dyz    dz2    dxz    dx2    tot
  1  0.001  0.008  0.000  0.002  0.318  0.003  0.422  0.002  0.137  0.894

band   4 # energy    1.06754828 # occ.  2.00000000

ion      s     py     pz     px    dxy    dyz    dz2    dxz    dx2    tot
  1  0.003  0.001  0.001  0.003  0.033  0.120  0.054  0.363  0.347  0.925

band   5 # energy    1.49056576 # occ.  2.00000000

ion      s     py     pz     px    dxy    dyz    dz2    dxz    dx2    tot
  1  0.007  0.001  0.001  0.006  0.012  0.105  0.034  0.339  0.426  0.931

band   6 # energy    2.82957564 # occ.  2.00000000

ion      s     py     pz     px    dxy    dyz    dz2    dxz    dx2    tot
  1  0.051  0.009  0.000  0.013  0.444  0.001  0.417  0.000  0.000  0.935

band   7 # energy   14.92095590 # occ.  0.00000000

ion      s     py     pz     px    dxy    dyz    dz2    dxz    dx2    tot
  1  0.173  0.128  0.058  0.101  0.055  0.029  0.023  0.027  0.000  0.593

band   8 # energy   17.66872906 # occ.  0.00000000

ion      s     py     pz     px    dxy    dyz    dz2    dxz    dx2    tot
  1  0.020  0.029  0.293  0.018  0.010  0.113  0.011  0.109  0.000  0.603

band   9 # energy   21.69520816 # occ.  0.00000000

ion      s     py     pz     px    dxy    dyz    dz2    dxz    dx2    tot
  1  0.021  0.010  0.008  0.120  0.001  0.001  0.044  0.000  0.057  0.261


 k-point   15 :   -0.06250000 0.18750000 0.06250000     weight = 0.02343750

band   1 # energy   -2.94860481 # occ.  2.00000000

ion      s     py     pz     px    dxy    dyz    dz2    dxz    dx2    tot
  1  0.500  0.012  0.001  0.036  0.019  0.002  0.003  0.003  0.004  0.579

band   2 # energy   -0.03374554 # occ.  2.00000000

ion      s     py     pz     px    dxy    dyz    dz2    dxz    dx2    tot
  1  0.002  0.001  0.007  0.001  0.008  0.721  0.000  0.150  0.000  0.890

band   3 # energy    0.69588181 # occ.  2.00000000

ion      s     py     pz     px    dxy    dyz    dz2    dxz    dx2    tot
  1  0.001  0.005  0.000  0.002  0.629  0.020  0.201  0.008  0.051  0.917

band   4 # energy    0.79483518 # occ.  2.00000000

ion      s     py     pz     px    dxy    dyz    dz2    dxz    dx2    tot
  1  0.000  0.000  0.002  0.000  0.030  0.138  0.009  0.694  0.053  0.926

band   5 # energy    1.37759995 # occ.  2.00000000

ion      s     py     pz     px    dxy    dyz    dz2    dxz    dx2    tot
  1  0.006  0.000  0.000  0.003  0.061  0.018  0.010  0.051  0.785  0.934

band   6 # energy    1.97592567 # occ.  2.00000000

ion      s     py     pz     px    dxy    dyz    dz2    dxz    dx2    tot
  1  0.004  0.001  0.000  0.001  0.171  0.000  0.728  0.005  0.045  0.956

band   7 # energy   18.00986517 # occ.  0.00000000

ion      s     py     pz     px    dxy    dyz    dz2    dxz    dx2    tot
  1  0.094  0.117  0.062  0.087  0.063  0.032  0.008  0.032  0.002  0.497

band   8 # energy   20.11869100 # occ.  0.00000000

ion      s     py     pz     px    dxy    dyz    dz2    dxz    dx2    tot
  1  0.012  0.026  0.151  0.013  0.010  0.104  0.007  0.084  0.001  0.409

band   9 # energy   22.49814702 # occ.  0.00000000

ion      s     py     pz     px    dxy    dyz    dz2    dxz    dx2    tot
  1  0.000  0.048  0.154  0.003  0.026  0.013  0.000  0.019  0.005  0.269


 k-point   16 :    0.31250000 0.31250000 0.06250000     weight = 0.01171875

band   1 # energy   -1.66487532 # occ.  2.00000000

ion      s     py     pz     px    dxy    dyz    dz2    dxz    dx2    tot
  1  0.306  0.001  0.065  0.001  0.003  0.004  0.265  0.004  0.000  0.648

band   2 # energy   -0.73446425 # occ.  2.00000000

ion      s     py     pz     px    dxy    dyz    dz2    dxz    dx2    tot
  1  0.001  0.001  0.000  0.001  0.861  0.003  0.002  0.003  0.000  0.871

band   3 # energy    0.96404424 # occ.  2.00000000

ion      s     py     pz     px    dxy    dyz    dz2    dxz    dx2    tot
  1  0.088  0.001  0.041  0.001  0.003  0.115  0.483  0.115  0.000  0.847

band   4 # energy    1.60469309 # occ.  2.00000000

ion      s     py     pz     px    dxy    dyz    dz2    dxz    dx2    tot
  1  0.000  0.005  0.000  0.005  0.000  0.397  0.000  0.397  0.135  0.938

band   5 # energy    1.96175687 # occ.  2.00000000

ion      s     py     pz     px    dxy    dyz    dz2    dxz    dx2    tot
  1  0.047  0.005  0.023  0.005  0.005  0.342  0.134  0.342  0.000  0.903

band   6 # energy    2.31933140 # occ.  2.00000000

ion      s     py     pz     px    dxy    dyz    dz2    dxz    dx2    tot
  1  0.000  0.000  0.000  0.000  0.000  0.068  0.000  0.068  0.831  0.968

band   7 # energy   16.92688071 # occ.  0.00000000

ion      s     py     pz     px    dxy    dyz    dz2    dxz    dx2    tot
  1  0.109  0.152  0.083  0.152  0.017  0.042  0.000  0.042  0.000  0.597

band   8 # energy   18.19987466 # occ.  0.00000000
