<?xml version="1.0" encoding="ISO-8859-1"?>
<modeling>
 <generator>
  <i name="program"" type=""stringvasp</i>
  <i name="version"" type=""string4.6.26 </i>
  <i name="subversion"" type=""string15Dec04 complex  serial</i>
  <i name="platform"" type=""stringLinuxPgi</i>
  <i name="date"" type=""string2009 11 30</i>
  <i name="time"" type=""string08:14:35</i>
 </generator>
 <incar>
  <i type=""string"" nameSYSTEM"" Au, FCC</i>
  <i type=""int"" nameISTART""     0</i>
  <i type=""string"" namePREC""normal ! set fft mesh, cutoffs</i>
  <i type=""string"" nameALGO"" Fast   ! use fast algorithm for electro</i>
  <i type=""int"" nameISPIN""     1</i>
  <i name="EDIFF""      0.00010000</i>
  <i name="ENCUT""    350.00000000</i>
  <i type=""int"" nameISMEAR""     0</i>
  <i name="SIGMA""      0.10000000</i>
  <i type=""int"" nameNWRITE""     1</i>
  <i type=""logical"" nameLWAVE"" F  </i>
  <i type=""logical"" nameLCHARG"" T  </i>
  <i type=""logical"" nameLVTOT"" F  </i>
  <i type=""logical"" nameLORBIT"" F  </i>
 </incar>
 <kpoints>
  <generation param="Monkhorst-Pack">
   <v type=""int"" namedivisions""       8       8       8</v>
   <v name="usershift""      0.00000000      0.00000000      0.00000000</v>
   <v name="genvec1""      0.12500000      0.00000000      0.00000000</v>
   <v name="genvec2""      0.00000000      0.12500000      0.00000000</v>
   <v name="genvec3""      0.00000000      0.00000000      0.12500000</v>
   <v name="shift""      0.50000000      0.50000000      0.50000000</v>
  </generation>
  <varray name="kpointlist"">
   <v>       0.06250000      0.06250000      0.06250000</v>
   <v>       0.18750000      0.06250000      0.06250000</v>
   <v>       0.31250000      0.06250000      0.06250000</v>
   <v>       0.43750000      0.06250000      0.06250000</v>
   <v>      -0.43750000      0.06250000      0.06250000</v>
   <v>      -0.31250000      0.06250000      0.06250000</v>
   <v>      -0.18750000      0.06250000      0.06250000</v>
   <v>      -0.06250000      0.06250000      0.06250000</v>
   <v>       0.18750000      0.18750000      0.06250000</v>
   <v>       0.31250000      0.18750000      0.06250000</v>
   <v>       0.43750000      0.18750000      0.06250000</v>
   <v>      -0.43750000      0.18750000      0.06250000</v>
   <v>      -0.31250000      0.18750000      0.06250000</v>
   <v>      -0.18750000      0.18750000      0.06250000</v>
   <v>      -0.06250000      0.18750000      0.06250000</v>
   <v>       0.31250000      0.31250000      0.06250000</v>
   <v>       0.43750000      0.31250000      0.06250000</v>
   <v>      -0.43750000      0.31250000      0.06250000</v>
   <v>      -0.31250000      0.31250000      0.06250000</v>
   <v>      -0.18750000      0.31250000      0.06250000</v>
   <v>      -0.06250000      0.31250000      0.06250000</v>
   <v>       0.43750000      0.43750000      0.06250000</v>
   <v>      -0.43750000      0.43750000      0.06250000</v>
   <v>      -0.31250000      0.43750000      0.06250000</v>
   <v>      -0.18750000      0.43750000      0.06250000</v>
   <v>      -0.06250000      0.43750000      0.06250000</v>
   <v>      -0.43750000     -0.43750000      0.06250000</v>
   <v>      -0.31250000     -0.43750000      0.06250000</v>
   <v>      -0.18750000     -0.43750000      0.06250000</v>
   <v>      -0.31250000     -0.31250000      0.06250000</v>
   <v>      -0.18750000     -0.31250000      0.06250000</v>
   <v>      -0.18750000     -0.18750000      0.06250000</v>
   <v>       0.18750000      0.18750000      0.18750000</v>
   <v>       0.31250000      0.18750000      0.18750000</v>
   <v>       0.43750000      0.18750000      0.18750000</v>
   <v>      -0.43750000      0.18750000      0.18750000</v>
   <v>      -0.31250000      0.18750000      0.18750000</v>
   <v>      -0.18750000      0.18750000      0.18750000</v>
   <v>       0.31250000      0.31250000      0.18750000</v>
   <v>       0.43750000      0.31250000      0.18750000</v>
   <v>      -0.43750000      0.31250000      0.18750000</v>
   <v>      -0.31250000      0.31250000      0.18750000</v>
   <v>      -0.18750000      0.31250000      0.18750000</v>
   <v>       0.43750000      0.43750000      0.18750000</v>
   <v>      -0.43750000      0.43750000      0.18750000</v>
   <v>      -0.31250000      0.43750000      0.18750000</v>
   <v>      -0.18750000      0.43750000      0.18750000</v>
   <v>      -0.43750000     -0.43750000      0.18750000</v>
   <v>      -0.31250000     -0.43750000      0.18750000</v>
   <v>      -0.31250000     -0.31250000      0.18750000</v>
   <v>       0.31250000      0.31250000      0.31250000</v>
   <v>       0.43750000      0.31250000      0.31250000</v>
   <v>      -0.43750000      0.31250000      0.31250000</v>
   <v>      -0.31250000      0.31250000      0.31250000</v>
   <v>       0.43750000      0.43750000      0.31250000</v>
   <v>      -0.43750000      0.43750000      0.31250000</v>
   <v>      -0.31250000      0.43750000      0.31250000</v>
   <v>      -0.43750000     -0.43750000      0.31250000</v>
   <v>       0.43750000      0.43750000      0.43750000</v>
   <v>      -0.43750000      0.43750000      0.43750000</v>
  </varray>
  <varray name="weights"">
   <v>       0.00390625</v>
   <v>       0.01171875</v>
   <v>       0.01171875</v>
   <v>       0.01171875</v>
   <v>       0.01171875</v>
   <v>       0.01171875</v>
   <v>       0.01171875</v>
   <v>       0.01171875</v>
   <v>       0.01171875</v>
   <v>       0.02343750</v>
   <v>       0.02343750</v>
   <v>       0.02343750</v>
   <v>       0.02343750</v>
   <v>       0.02343750</v>
   <v>       0.02343750</v>
   <v>       0.01171875</v>
   <v>       0.02343750</v>
   <v>       0.02343750</v>
   <v>       0.02343750</v>
   <v>       0.02343750</v>
   <v>       0.02343750</v>
   <v>       0.01171875</v>
   <v>       0.02343750</v>
   <v>       0.02343750</v>
   <v>       0.02343750</v>
   <v>       0.02343750</v>
   <v>       0.01171875</v>
   <v>       0.02343750</v>
   <v>       0.02343750</v>
   <v>       0.01171875</v>
   <v>       0.02343750</v>
   <v>       0.01171875</v>
   <v>       0.00390625</v>
   <v>       0.01171875</v>
   <v>       0.01171875</v>
   <v>       0.01171875</v>
   <v>       0.01171875</v>
   <v>       0.01171875</v>
   <v>       0.01171875</v>
   <v>       0.02343750</v>
   <v>       0.02343750</v>
   <v>       0.02343750</v>
   <v>       0.02343750</v>
   <v>       0.01171875</v>
   <v>       0.02343750</v>
   <v>       0.02343750</v>
   <v>       0.02343750</v>
   <v>       0.01171875</v>
   <v>       0.02343750</v>
   <v>       0.01171875</v>
   <v>       0.00390625</v>
   <v>       0.01171875</v>
   <v>       0.01171875</v>
   <v>       0.01171875</v>
   <v>       0.01171875</v>
   <v>       0.02343750</v>
   <v>       0.02343750</v>
   <v>       0.01171875</v>
   <v>       0.00390625</v>
   <v>       0.01171875</v>
  </varray>
 </kpoints>
 <parameters>
  <separator name="general"">
   <i type=""string"" nameSYSTEM""Au, FCC</i>
   <i type=""logical"" nameLCOMPAT"" F  </i>
  </separator>
  <separator name="electronic"">
   <i type=""string"" namePREC""normal</i>
   <i name="ENMAX""    350.00000000</i>
   <i name="ENAUG""    356.67000000</i>
   <i name="EDIFF""      0.00010000</i>
   <i type=""int"" nameIALGO""    68</i>
   <i type=""int"" nameIWAVPR""     0</i>
   <i type=""int"" nameNBANDS""     9</i>
   <i name="NELECT""     11.00000000</i>
   <separator name="electronic smearing"">
    <i type=""int"" nameISMEAR""     0</i>
    <i name="SIGMA""      0.10000000</i>
   </separator>
   <separator name="electronic projectors"">
    <i type=""logical"" nameLREAL"" F  </i>
    <v name="ROPT""      0.00000000</v>
    <i type=""int"" nameLMAXPAW""  -100</i>
    <i type=""int"" nameLMAXMIX""     2</i>
   </separator>
   <separator name="electronic startup"">
    <i type=""int"" nameISTART""     0</i>
    <i type=""int"" nameICHARG""     2</i>
    <i type=""int"" nameINIWAV""     1</i>
   </separator>
   <separator name="electronic spin"">
    <i type=""int"" nameISPIN""     1</i>
    <i type=""logical"" nameLNONCOLLINEAR"" F  </i>
    <v name="MAGMOM""      1.00000000</v>
    <i name="NUPDOWN""     -1.00000000</i>
    <i type=""logical"" nameLSORBIT"" F  </i>
    <v name="SAXIS""      0.00000000      0.00000000      1.00000000</v>
    <i type=""logical"" nameLSPIRAL"" F  </i>
    <v name="QSPIRAL""      0.00000000      0.00000000      0.00000000</v>
    <i type=""logical"" nameLZEROZ"" F  </i>
   </separator>
   <separator name="electronic exchange-correlation"">
    <i type=""string"" nameGGA""--</i>
    <i type=""int"" nameVOSKOWN""     0</i>
    <i type=""logical"" nameLASPH"" F  </i>
    <i type=""logical"" nameLMETAGGA"" F  </i>
    <i type=""string"" nameGGA2""--</i>
   </separator>
   <separator name="electronic convergence"">
    <i type=""int"" nameNELM""    60</i>
    <i type=""int"" nameNELMDL""    -5</i>
    <i type=""int"" nameNELMIN""     2</i>
    <i name="ENINI""    350.00000000</i>
    <separator name="electronic convergence detail"">
     <i type=""logical"" nameLDIAG"" T  </i>
     <i name="WEIMIN""      0.00000000</i>
     <i name="EBREAK""      0.00000278</i>
     <i name="DEPER""      0.30000000</i>
     <i type=""int"" nameNRMM""     4</i>
     <i name="TIME""      0.10000000</i>
    </separator>
   </separator>
   <separator name="electronic mixer"">
    <i name="AMIX""      0.40000000</i>
    <i name="BMIX""      1.00000000</i>
    <i name="AMIN""      0.10000000</i>
    <i name="AMIX_MAG""      1.60000000</i>
    <i name="BMIX_MAG""      1.00000000</i>
    <separator name="electronic mixer details"">
     <i type=""int"" nameIMIX""     4</i>
     <i type=""int"" nameMAXMIX""   -45</i>
     <i name="WC""    100.00000000</i>
     <i type=""int"" nameINIMIX""     1</i>
     <i type=""int"" nameMIXPRE""     1</i>
     <i type=""int"" nameMREMOVE""     5</i>
    </separator>
   </separator>
   <separator name="electronic dipolcorrection"">
    <i type=""int"" nameIDIPOL""     0</i>
    <i type=""logical"" nameLDIPOL"" F  </i>
    <v name="DIPOL""   -100.00000000</v>
    <i name="EFIELD""      0.00000000</i>
   </separator>
  </separator>
  <separator name="grids"">
   <i type=""int"" nameNGX""    14</i>
   <i type=""int"" nameNGY""    14</i>
   <i type=""int"" nameNGZ""    14</i>
   <i type=""int"" nameNGXF""    28</i>
   <i type=""int"" nameNGYF""    28</i>
   <i type=""int"" nameNGZF""    28</i>
   <i type=""logical"" nameADDGRID"" F  </i>
  </separator>
  <separator name="ionic"">
   <i type=""int"" nameNSW""     0</i>
   <i type=""int"" nameIBRION""    -1</i>
   <i type=""int"" nameISIF""     2</i>
   <i name="PSTRESS""      0.00000000</i>
   <i name="EDIFFG""      0.00100000</i>
   <i type=""int"" nameNFREE""     0</i>
   <i name="POTIM""      0.50000000</i>
   <i name="SMASS""     -3.00000000</i>
  </separator>
  <separator name="ionic md"">
   <i name="TEBEG""      0.00010000</i>
   <i name="TEEND""      0.00010000</i>
   <i type=""int"" nameNBLOCK""     1</i>
   <i type=""int"" nameKBLOCK""     1</i>
   <i type=""int"" nameNPACO""   256</i>
   <i name="APACO""     16.00000000</i>
  </separator>
  <separator name="symmetry"">
   <i type=""int"" nameISYM""     2</i>
   <i name="SYMPREC""      0.00001000</i>
  </separator>
  <separator name="dos"">
   <i type=""logical"" nameLORBIT"" F  </i>
   <v name="RWIGS""     -1.00000000</v>
   <i type=""int"" nameNEDOS""   301</i>
   <i name="EMIN""     10.00000000</i>
   <i name="EMAX""    -10.00000000</i>
  </separator>
  <separator name="writing"">
   <i type=""int"" nameNWRITE""     1</i>
   <i type=""logical"" nameLWAVE"" F  </i>
   <i type=""logical"" nameLCHARG"" T  </i>
   <i type=""logical"" nameLPARD"" F  </i>
   <i type=""logical"" nameLVTOT"" F  </i>
   <i type=""logical"" nameLELF"" F  </i>
   <i type=""logical"" nameLOPTICS"" F  </i>
   <i name="STM""      0.00000000</i>
  </separator>
  <separator name="performance"">
   <i type=""int"" nameNPAR""     1</i>
   <i type=""int"" nameNSIM""     4</i>
   <i type=""int"" nameNBLK""    32</i>
   <i type=""logical"" nameLPLANE"" T  </i>
   <i type=""logical"" nameLCRITICAL_MEM"" F  </i>
   <i type=""logical"" nameLSCALAPACK"" F  </i>
   <i type=""logical"" nameLSCALU"" F  </i>
   <i type=""logical"" nameLASYNC"" F  </i>
  </separator>
  <separator name="miscellaneous"">
   <i type=""int"" nameIDIOT""     3</i>
   <i type=""logical"" nameLMUSIC"" F  </i>
   <v name="POMASS""    196.96600000</v>
   <i type=""logical"" nameLCORR"" T  </i>
  </separator>
  <i type=""logical"" nameLREAL_COMPAT"" F  </i>
  <i type=""logical"" nameGGA_COMPAT"" T  </i>
  <i type=""logical"" nameLBERRY"" F  </i>
  <i type=""int"" nameICORELEVEL""     0</i>
  <i type=""logical"" nameLDAU"" F  </i>
  <i type=""int"" nameI_CONSTRAINED_M""     0</i>
 </parameters>
 <atominfo>
  <atoms>       1</atoms>
  <types>       1</types>
  <array name="atoms"">
   <dimension dim="1">ion</dimension>
   <field type="string">element</field>
   <field type="int">atomtype</field>
   <set>
    <rc><c>Au</c><c>   1</c></rc>
   </set>
  </array>
  <array name="atomtypes"">
   <dimension dim="1">type</dimension>
   <field type="int">atomspertype</field>
   <field type="string">element</field>
   <field>mass</field>
   <field>valence</field>
   <field type="string">pseudopotential</field>
   <set>
    <rc><c>   1</c><c>Au</c><c>    196.96600000</c><c>     11.00000000</c><c> PAW_GGA Au 18Jul2000                   </c></rc>
   </set>
  </array>
 </atominfo>
 <structure name="initialpos"">
  <crystal>
   <varray name="basis"">
    <v>       0.00000000      2.10000000      2.10000000</v>
    <v>       2.10000000      0.00000000      2.10000000</v>
    <v>       2.10000000      2.10000000      0.00000000</v>
   </varray>
   <i name="volume""     18.52200000</i>
   <varray name="rec_basis"">
    <v>      -0.23809524      0.23809524      0.23809524</v>
    <v>       0.23809524     -0.23809524      0.23809524</v>
    <v>       0.23809524      0.23809524     -0.23809524</v>
   </varray>
  </crystal>
  <varray name="positions"">
   <v>       0.00000000      0.00000000      0.00000000</v>
  </varray>
 </structure>
 <calculation>
  <scstep>
   <time name="dav""    1.32    1.20</time>
   <time name="total""    1.37    1.25</time>
   <energy>
    <i name="alphaZ""    100.90030612</i>
    <i name="ewald""   -951.01733377</i>
    <i name="hartreedc""   -134.66459748</i>
    <i name="XCdc""     14.93928002</i>
    <i name="pawpsdc""    747.65313744</i>
    <i name="pawaedc""   -724.56448596</i>
    <i name="eentropy""     -0.00279033</i>
    <i name="bandstr""     64.01140051</i>
    <i name="atom""    927.07761444</i>
    <i name="e_fr_energy""     44.33253099</i>
    <i name="e_wo_entrp""     44.33532132</i>
    <i name="e_0_energy""     44.33392616</i>
   </energy>
  </scstep>
  <scstep>
   <time name="dav""    1.09    1.01</time>
   <time name="total""    1.09    1.02</time>
   <energy>
    <i name="e_fr_energy""     -2.80001508</i>
    <i name="e_wo_entrp""     -2.79849112</i>
    <i name="e_0_energy""     -2.79925310</i>
   </energy>
  </scstep>
  <scstep>
   <time name="dav""    1.30    1.17</time>
   <time name="total""    1.30    1.18</time>
   <energy>
    <i name="e_fr_energy""     -3.45156569</i>
    <i name="e_wo_entrp""     -3.45026252</i>
    <i name="e_0_energy""     -3.45091411</i>
   </energy>
  </scstep>
  <scstep>
   <time name="dav""    1.29    1.16</time>
   <time name="total""    1.30    1.17</time>
   <energy>
    <i name="e_fr_energy""     -3.45318159</i>
    <i name="e_wo_entrp""     -3.45187806</i>
    <i name="e_0_energy""     -3.45252983</i>
   </energy>
  </scstep>
  <scstep>
   <time name="dav""    1.27    1.17</time>
   <time name="total""    1.32    1.23</time>
   <energy>
    <i name="e_fr_energy""     -3.45319442</i>
    <i name="e_wo_entrp""     -3.45189088</i>
    <i name="e_0_energy""     -3.45254265</i>
   </energy>
  </scstep>
  <scstep>
   <time name="diag""    0.20    0.19</time>
   <time name="diis""    0.82    0.79</time>
   <time name="orth""    0.02    0.02</time>
   <time name="total""    1.15    1.10</time>
   <energy>
    <i name="e_fr_energy""     -3.21661621</i>
    <i name="e_wo_entrp""     -3.21507124</i>
    <i name="e_0_energy""     -3.21584372</i>
   </energy>
  </scstep>
  <scstep>
   <time name="diag""    0.17    0.17</time>
   <time name="diis""    0.80    0.80</time>
   <time name="orth""    0.02    0.02</time>
   <time name="total""    1.10    1.10</time>
   <energy>
    <i name="e_fr_energy""     -3.20159524</i>
    <i name="e_wo_entrp""     -3.19963418</i>
    <i name="e_0_energy""     -3.20061471</i>
   </energy>
  </scstep>
  <scstep>
   <time name="diag""    0.21    0.18</time>
   <time name="diis""    0.85    0.83</time>
   <time name="orth""    0.03    0.02</time>
   <time name="total""    1.18    1.14</time>
   <energy>
    <i name="e_fr_energy""     -3.19862161</i>
    <i name="e_wo_entrp""     -3.19665471</i>
    <i name="e_0_energy""     -3.19763816</i>
   </energy>
  </scstep>
  <scstep>
   <time name="diag""    0.19    0.18</time>
   <time name="diis""    0.56    0.55</time>
   <time name="orth""    0.03    0.02</time>
   <time name="total""    0.83    0.81</time>
   <energy>
    <i name="alphaZ""    100.90030612</i>
    <i name="ewald""   -951.01733377</i>
    <i name="hartreedc""   -123.91156399</i>
    <i name="XCdc""     14.43604898</i>
    <i name="pawpsdc""    745.41575220</i>
    <i name="pawaedc""   -724.65998654</i>
    <i name="eentropy""     -0.00197911</i>
    <i name="bandstr""      8.56250840</i>
    <i name="atom""    927.07761444</i>
    <i name="e_fr_energy""     -3.19863327</i>
    <i name="e_wo_entrp""     -3.19665416</i>
    <i name="e_0_energy""     -3.19764372</i>
   </energy>
  </scstep>
  <structure>
   <crystal>
    <varray name="basis"">
     <v>       0.00000000      2.10000000      2.10000000</v>
     <v>       2.10000000      0.00000000      2.10000000</v>
     <v>       2.10000000      2.10000000      0.00000000</v>
    </varray>
    <i name="volume""     18.52200000</i>
    <varray name="rec_basis"">
     <v>      -0.23809524      0.23809524      0.23809524</v>
     <v>       0.23809524     -0.23809524      0.23809524</v>
     <v>       0.23809524      0.23809524     -0.23809524</v>
    </varray>
   </crystal>
   <varray name="positions"">
    <v>       0.00000000      0.00000000      0.00000000</v>
   </varray>
  </structure>
  <varray name="forces"">
   <v>       0.00000000      0.00000000      0.00000000</v>
  </varray>
  <varray name="stress"">
   <v>     -32.94017505      0.00000000      0.00000000</v>
   <v>       0.00000000    -32.94017505      0.00000000</v>
   <v>       0.00000000      0.00000000    -32.94017505</v>
  </varray>
  <energy>
   <i name="e_fr_energy""     -3.19863327</i>
   <i name="e_wo_entrp""     -3.19764372</i>
   <i name="e_0_energy""     -0.00197911</i>
  </energy>
  <eigenvalues>
   <array>
    <dimension dim="1">band</dimension>
    <dimension dim="2">kpoint</dimension>
    <dimension dim="3">spin</dimension>
    <field>eigene</field>
    <field>occ</field>
    <set>
     <set comment="spin 1">
      <set comment="kpoint 1">
       <r>  -4.1871  1.0000</r>
       <r>   0.3296  1.0000</r>
       <r>   0.4077  1.0000</r>
       <r>   0.4077  1.0000</r>
       <r>   1.6592  1.0000</r>
       <r>   1.6592  1.0000</r>
       <r>  20.1382  0.0000</r>
       <r>  22.3899  0.0000</r>
       <r>  23.4825  0.0000</r>
      </set>
      <set comment="kpoint 2">
       <r>  -3.5430  1.0000</r>
       <r>   0.1517  1.0000</r>
       <r>   0.5867  1.0000</r>
       <r>   0.6064  1.0000</r>
       <r>   1.4874  1.0000</r>
       <r>   1.7616  1.0000</r>
       <r>  19.3967  0.0000</r>
       <r>  20.6321  0.0000</r>
       <r>  22.8202  0.0000</r>
      </set>
      <set comment="kpoint 3">
       <r>  -2.3424  1.0000</r>
       <r>   0.2688  1.0000</r>
       <r>   0.6193  1.0000</r>
       <r>   0.6557  1.0000</r>
       <r>   1.7051  1.0000</r>
       <r>   2.2139  1.0000</r>
       <r>  14.6361  0.0000</r>
       <r>  20.3441  0.0000</r>
       <r>  22.2624  0.0000</r>
      </set>
      <set comment="kpoint 4">
       <r>  -1.8557  1.0000</r>
       <r>   0.3740  1.0000</r>
       <r>   0.4659  1.0000</r>
       <r>   1.7752  1.0000</r>
       <r>   2.3621  1.0000</r>
       <r>   3.2037  1.0000</r>
       <r>   9.8644  0.0000</r>
       <r>  19.5868  0.0000</r>
       <r>  20.9783  0.0000</r>
      </set>
      <set comment="kpoint 5">
       <r>  -1.8435  1.0000</r>
       <r>   0.2872  1.0000</r>
       <r>   0.4141  1.0000</r>
       <r>   2.2557  1.0000</r>
       <r>   2.7212  1.0000</r>
       <r>   4.5145  0.7390</r>
       <r>   7.4875  0.0000</r>
       <r>  19.3775  0.0000</r>
       <r>  21.0153  0.0000</r>
      </set>
      <set comment="kpoint 6">
       <r>  -1.9168  1.0000</r>
       <r>   0.4168  1.0000</r>
       <r>   0.5527  1.0000</r>
       <r>   1.1293  1.0000</r>
       <r>   2.4663  1.0000</r>
       <r>   2.5353  1.0000</r>
       <r>  11.3773  0.0000</r>
       <r>  19.9921  0.0000</r>
       <r>  21.4878  0.0000</r>
      </set>
      <set comment="kpoint 7">
       <r>  -2.7323  1.0000</r>
       <r>   0.1014  1.0000</r>
       <r>   0.6522  1.0000</r>
       <r>   0.6941  1.0000</r>
       <r>   1.6228  1.0000</r>
       <r>   1.9445  1.0000</r>
       <r>  16.2939  0.0000</r>
       <r>  20.8987  0.0000</r>
       <r>  22.4167  0.0000</r>
      </set>
      <set comment="kpoint 8">
       <r>  -3.8562  1.0000</r>
       <r>   0.1933  1.0000</r>
       <r>   0.5346  1.0000</r>
       <r>   0.5396  1.0000</r>
       <r>   1.5064  1.0000</r>
       <r>   1.7393  1.0000</r>
       <r>  20.3095  0.0000</r>
       <r>  21.2425  0.0000</r>
       <r>  22.8979  0.0000</r>
      </set>
      <set comment="kpoint 9">
       <r>  -3.2259  1.0000</r>
       <r>  -0.0707  1.0000</r>
       <r>   0.7752  1.0000</r>
       <r>   0.7961  1.0000</r>
       <r>   1.2866  1.0000</r>
       <r>   1.8894  1.0000</r>
       <r>  19.7153  0.0000</r>
       <r>  21.0134  0.0000</r>
       <r>  21.6278  0.0000</r>
      </set>
      <set comment="kpoint 10">
       <r>  -2.1671  1.0000</r>
       <r>  -0.3059  1.0000</r>
       <r>   0.6119  1.0000</r>
       <r>   1.1089  1.0000</r>
       <r>   1.5713  1.0000</r>
       <r>   2.3045  1.0000</r>
       <r>  16.6131  0.0000</r>
       <r>  19.0252  0.0000</r>
       <r>  21.6297  0.0000</r>
      </set>
      <set comment="kpoint 11">
       <r>  -1.4141  1.0000</r>
       <r>   0.1674  1.0000</r>
       <r>   0.3093  1.0000</r>
       <r>   0.9866  1.0000</r>
       <r>   2.4332  1.0000</r>
       <r>   3.5310  1.0000</r>
       <r>  11.7208  0.0000</r>
       <r>  18.3805  0.0000</r>
       <r>  19.5500  0.0000</r>
      </set>
      <set comment="kpoint 12">
       <r>  -1.3631  1.0000</r>
       <r>   0.0144  1.0000</r>
       <r>   0.8091  1.0000</r>
       <r>   1.2048  1.0000</r>
       <r>   2.6650  1.0000</r>
       <r>   6.0894  0.0000</r>
       <r>   7.5937  0.0000</r>
       <r>  17.8683  0.0000</r>
       <r>  18.7824  0.0000</r>
      </set>
      <set comment="kpoint 13">
       <r>  -1.3247  1.0000</r>
       <r>   0.1206  1.0000</r>
       <r>   0.7188  1.0000</r>
       <r>   0.9373  1.0000</r>
       <r>   2.2723  1.0000</r>
       <r>   4.3615  0.9975</r>
       <r>  10.3066  0.0000</r>
       <r>  17.2193  0.0000</r>
       <r>  19.9644  0.0000</r>
      </set>
      <set comment="kpoint 14">
       <r>  -1.7645  1.0000</r>
       <r>  -0.1560  1.0000</r>
       <r>   0.4750  1.0000</r>
       <r>   1.0675  1.0000</r>
       <r>   1.4906  1.0000</r>
       <r>   2.8296  1.0000</r>
       <r>  14.9210  0.0000</r>
       <r>  17.6687  0.0000</r>
       <r>  21.6952  0.0000</r>
      </set>
      <set comment="kpoint 15">
       <r>  -2.9486  1.0000</r>
       <r>  -0.0337  1.0000</r>
       <r>   0.6959  1.0000</r>
       <r>   0.7948  1.0000</r>
       <r>   1.3776  1.0000</r>
       <r>   1.9759  1.0000</r>
       <r>  18.0099  0.0000</r>
       <r>  20.1187  0.0000</r>
       <r>  22.4981  0.0000</r>
      </set>
      <set comment="kpoint 16">
       <r>  -1.6649  1.0000</r>
       <r>  -0.7345  1.0000</r>
       <r>   0.9640  1.0000</r>
       <r>   1.6047  1.0000</r>
       <r>   1.9618  1.0000</r>
       <r>   2.3193  1.0000</r>
       <r>  16.9269  0.0000</r>
       <r>  18.1999  0.0000</r>
       <r>  19.0706  0.0000</r>
      </set>
      <set comment="kpoint 17">
       <r>  -1.2274  1.0000</r>
       <r>  -0.8548  1.0000</r>
       <r>   0.9462  1.0000</r>
       <r>   1.9390  1.0000</r>
       <r>   2.4909  1.0000</r>
       <r>   3.6787  1.0000</r>
       <r>  13.6410  0.0000</r>
       <r>  16.0542  0.0000</r>
       <r>  16.9024  0.0000</r>
      </set>
      <set comment="kpoint 18">
       <r>  -1.0560  1.0000</r>
       <r>  -0.4402  1.0000</r>
       <r>   0.7393  1.0000</r>
       <r>   1.6521  1.0000</r>
       <r>   2.7330  1.0000</r>
       <r>   6.5583  0.0000</r>
       <r>   9.5502  0.0000</r>
       <r>  14.3243  0.0000</r>
       <r>  16.7661  0.0000</r>
      </set>
      <set comment="kpoint 19">
       <r>  -0.7316  1.0000</r>
       <r>  -0.1166  1.0000</r>
       <r>   0.3638  1.0000</r>
       <r>   1.4368  1.0000</r>
       <r>   2.3118  1.0000</r>
       <r>   6.3807  0.0000</r>
       <r>  10.4103  0.0000</r>
       <r>  12.8437  0.0000</r>
       <r>  18.3317  0.0000</r>
      </set>
      <set comment="kpoint 20">
       <r>  -0.8799  1.0000</r>
       <r>  -0.0365  1.0000</r>
       <r>   0.1681  1.0000</r>
       <r>   1.2355  1.0000</r>
       <r>   1.8670  1.0000</r>
       <r>   4.3334  0.9993</r>
       <r>  12.2525  0.0000</r>
       <r>  15.0161  0.0000</r>
       <r>  20.1339  0.0000</r>
      </set>
      <set comment="kpoint 21">
       <r>  -1.8632  1.0000</r>
       <r>   0.3024  1.0000</r>
       <r>   0.4896  1.0000</r>
       <r>   0.7525  1.0000</r>
       <r>   1.9767  1.0000</r>
       <r>   2.7117  1.0000</r>
       <r>  13.1121  0.0000</r>
       <r>  19.5006  0.0000</r>
       <r>  21.1512  0.0000</r>
      </set>
      <set comment="kpoint 22">
       <r>  -1.5173  1.0000</r>
       <r>  -1.2444  1.0000</r>
       <r>   2.3462  1.0000</r>
       <r>   2.4215  1.0000</r>
       <r>   2.7728  1.0000</r>
       <r>   4.2590  1.0000</r>
       <r>  12.4413  0.0000</r>
       <r>  14.9879  0.0000</r>
       <r>  15.4926  0.0000</r>
      </set>
      <set comment="kpoint 23">
       <r>  -1.4201  1.0000</r>
       <r>  -1.1689  1.0000</r>
       <r>   1.9809  1.0000</r>
       <r>   2.3953  1.0000</r>
       <r>   2.9247  1.0000</r>
       <r>   6.8076  0.0000</r>
       <r>   9.9728  0.0000</r>
       <r>  13.4837  0.0000</r>
       <r>  14.8552  0.0000</r>
      </set>
      <set comment="kpoint 24">
       <r>  -1.0780  1.0000</r>
       <r>  -0.5606  1.0000</r>
       <r>   0.9940  1.0000</r>
       <r>   1.8669  1.0000</r>
       <r>   2.6970  1.0000</r>
       <r>   8.1458  0.0000</r>
       <r>   9.1665  0.0000</r>
       <r>  12.1387  0.0000</r>
       <r>  16.3549  0.0000</r>
      </set>
      <set comment="kpoint 25">
       <r>  -0.9990  1.0000</r>
       <r>  -0.1446  1.0000</r>
       <r>   0.7749  1.0000</r>
       <r>   1.1362  1.0000</r>
       <r>   2.5239  1.0000</r>
       <r>   6.7491  0.0000</r>
       <r>   8.1962  0.0000</r>
       <r>  15.3721  0.0000</r>
       <r>  18.4772  0.0000</r>
      </set>
      <set comment="kpoint 26">
       <r>  -1.6663  1.0000</r>
       <r>   0.2165  1.0000</r>
       <r>   0.5698  1.0000</r>
       <r>   1.5978  1.0000</r>
       <r>   2.6077  1.0000</r>
       <r>   4.4240  0.9726</r>
       <r>   8.5928  0.0000</r>
       <r>  19.1940  0.0000</r>
       <r>  19.9177  0.0000</r>
      </set>
      <set comment="kpoint 27">
       <r>  -1.6145  1.0000</r>
       <r>  -1.3584  1.0000</r>
       <r>   2.5956  1.0000</r>
       <r>   2.7134  1.0000</r>
       <r>   2.9421  1.0000</r>
       <r>   5.9079  0.0000</r>
       <r>  10.2001  0.0000</r>
       <r>  14.2856  0.0000</r>
       <r>  14.8570  0.0000</r>
      </set>
      <set comment="kpoint 28">
       <r>  -1.3199  1.0000</r>
       <r>  -1.0592  1.0000</r>
       <r>   1.5462  1.0000</r>
       <r>   2.2916  1.0000</r>
       <r>   2.7528  1.0000</r>
       <r>   5.1225  0.0000</r>
       <r>  11.8846  0.0000</r>
       <r>  14.4156  0.0000</r>
       <r>  15.4806  0.0000</r>
      </set>
      <set comment="kpoint 29">
       <r>  -1.1304  1.0000</r>
       <r>  -0.1834  1.0000</r>
       <r>   0.4503  1.0000</r>
       <r>   1.3148  1.0000</r>
       <r>   2.6826  1.0000</r>
       <r>   4.8654  0.0000</r>
       <r>  10.4971  0.0000</r>
       <r>  16.7744  0.0000</r>
       <r>  17.6515  0.0000</r>
      </set>
      <set comment="kpoint 30">
       <r>  -1.4314  1.0000</r>
       <r>  -1.0283  1.0000</r>
       <r>   1.6415  1.0000</r>
       <r>   2.0604  1.0000</r>
       <r>   2.5503  1.0000</r>
       <r>   2.8306  1.0000</r>
       <r>  14.9860  0.0000</r>
       <r>  16.4726  0.0000</r>
       <r>  16.6584  0.0000</r>
      </set>
      <set comment="kpoint 31">
       <r>  -1.4593  1.0000</r>
       <r>  -0.5937  1.0000</r>
       <r>   0.5534  1.0000</r>
       <r>   1.5023  1.0000</r>
       <r>   2.0615  1.0000</r>
       <r>   2.7815  1.0000</r>
       <r>  15.1699  0.0000</r>
       <r>  17.5864  0.0000</r>
       <r>  19.3054  0.0000</r>
      </set>
      <set comment="kpoint 32">
       <r>  -2.3966  1.0000</r>
       <r>  -0.3992  1.0000</r>
       <r>   0.8428  1.0000</r>
       <r>   1.1622  1.0000</r>
       <r>   1.4081  1.0000</r>
       <r>   2.0910  1.0000</r>
       <r>  18.4532  0.0000</r>
       <r>  19.9385  0.0000</r>
       <r>  21.1723  0.0000</r>
      </set>
      <set comment="kpoint 33">
       <r>  -3.2604  1.0000</r>
       <r>   0.1792  1.0000</r>
       <r>   0.6077  1.0000</r>
       <r>   0.6077  1.0000</r>
       <r>   1.6618  1.0000</r>
       <r>   1.6618  1.0000</r>
       <r>  17.8365  0.0000</r>
       <r>  20.9600  0.0000</r>
       <r>  23.9710  0.0000</r>
      </set>
      <set comment="kpoint 34">
       <r>  -2.4312  1.0000</r>
       <r>  -0.0436  1.0000</r>
       <r>   0.6440  1.0000</r>
       <r>   0.8751  1.0000</r>
       <r>   1.3279  1.0000</r>
       <r>   2.3180  1.0000</r>
       <r>  16.3959  0.0000</r>
       <r>  18.9484  0.0000</r>
       <r>  22.8172  0.0000</r>
      </set>
      <set comment="kpoint 35">
       <r>  -1.3002  1.0000</r>
       <r>  -0.0414  1.0000</r>
       <r>   0.4104  1.0000</r>
       <r>   1.0295  1.0000</r>
       <r>   1.5454  1.0000</r>
       <r>   3.4976  1.0000</r>
       <r>  13.4678  0.0000</r>
       <r>  16.3080  0.0000</r>
       <r>  21.5829  0.0000</r>
      </set>
      <set comment="kpoint 36">
       <r>  -1.1904  1.0000</r>
       <r>   0.0222  1.0000</r>
       <r>   0.8980  1.0000</r>
       <r>   0.9791  1.0000</r>
       <r>   2.3301  1.0000</r>
       <r>   5.3928  0.0000</r>
       <r>   9.1377  0.0000</r>
       <r>  16.1910  0.0000</r>
       <r>  20.7017  0.0000</r>
      </set>
      <set comment="kpoint 37">
       <r>  -1.2893  1.0000</r>
       <r>  -0.0139  1.0000</r>
       <r>   0.8209  1.0000</r>
       <r>   0.9712  1.0000</r>
       <r>   2.7612  1.0000</r>
       <r>   5.4073  0.0000</r>
       <r>   8.8385  0.0000</r>
       <r>  17.3618  0.0000</r>
       <r>  19.0799  0.0000</r>
      </set>
      <set comment="kpoint 38">
       <r>  -1.4574  1.0000</r>
       <r>  -0.2859  1.0000</r>
       <r>   0.4310  1.0000</r>
       <r>   1.1567  1.0000</r>
       <r>   2.5533  1.0000</r>
       <r>   2.8502  1.0000</r>
       <r>  13.3839  0.0000</r>
       <r>  18.9411  0.0000</r>
       <r>  19.3586  0.0000</r>
      </set>
      <set comment="kpoint 39">
       <r>  -2.0566  1.0000</r>
       <r>  -0.0727  1.0000</r>
       <r>   0.5365  1.0000</r>
       <r>   0.8768  1.0000</r>
       <r>   1.9992  1.0000</r>
       <r>   2.2633  1.0000</r>
       <r>  14.8158  0.0000</r>
       <r>  20.6204  0.0000</r>
       <r>  20.7362  0.0000</r>
      </set>
      <set comment="kpoint 40">
       <r>  -1.1375  1.0000</r>
       <r>  -0.3141  1.0000</r>
       <r>   0.2097  1.0000</r>
       <r>   1.3996  1.0000</r>
       <r>   1.9210  1.0000</r>
       <r>   3.5283  1.0000</r>
       <r>  13.5632  0.0000</r>
       <r>  16.3394  0.0000</r>
       <r>  19.6031  0.0000</r>
      </set>
      <set comment="kpoint 41">
       <r>  -0.5536  1.0000</r>
       <r>  -0.2310  1.0000</r>
       <r>   0.0095  1.0000</r>
       <r>   1.5412  1.0000</r>
       <r>   2.2807  1.0000</r>
       <r>   5.4794  0.0000</r>
       <r>  11.2638  0.0000</r>
       <r>  13.8698  0.0000</r>
       <r>  17.7251  0.0000</r>
      </set>
      <set comment="kpoint 42">
       <r>  -0.7516  1.0000</r>
       <r>  -0.3229  1.0000</r>
       <r>   0.4532  1.0000</r>
       <r>   1.4505  1.0000</r>
       <r>   2.6317  1.0000</r>
       <r>   7.3824  0.0000</r>
       <r>   8.5608  0.0000</r>
       <r>  14.5197  0.0000</r>
       <r>  16.3931  0.0000</r>
      </set>
      <set comment="kpoint 43">
       <r>  -0.8868  1.0000</r>
       <r>  -0.5066  1.0000</r>
       <r>   0.2907  1.0000</r>
       <r>   1.7852  1.0000</r>
       <r>   2.3526  1.0000</r>
       <r>   4.5913  0.3278</r>
       <r>  12.3187  0.0000</r>
       <r>  15.0498  0.0000</r>
       <r>  17.2144  0.0000</r>
      </set>
      <set comment="kpoint 44">
       <r>  -1.2225  1.0000</r>
       <r>  -0.5571  1.0000</r>
       <r>   0.7404  1.0000</r>
       <r>   1.5090  1.0000</r>
       <r>   2.7554  1.0000</r>
       <r>   4.1079  1.0000</r>
       <r>  12.0238  0.0000</r>
       <r>  16.7025  0.0000</r>
       <r>  17.5507  0.0000</r>
      </set>
      <set comment="kpoint 45">
       <r>  -0.9716  1.0000</r>
       <r>  -0.7071  1.0000</r>
       <r>   0.7318  1.0000</r>
       <r>   2.0168  1.0000</r>
       <r>   2.6904  1.0000</r>
       <r>   6.1003  0.0000</r>
       <r>  11.1495  0.0000</r>
       <r>  13.7437  0.0000</r>
       <r>  15.3068  0.0000</r>
      </set>
      <set comment="kpoint 46">
       <r>  -0.7234  1.0000</r>
       <r>  -0.3279  1.0000</r>
       <r>   0.3222  1.0000</r>
       <r>   1.6534  1.0000</r>
       <r>   2.9165  1.0000</r>
       <r>   8.5128  0.0000</r>
       <r>  10.1159  0.0000</r>
       <r>  11.7215  0.0000</r>
       <r>  14.1669  0.0000</r>
      </set>
      <set comment="kpoint 47">
       <r>  -0.5706  1.0000</r>
       <r>  -0.3348  1.0000</r>
       <r>   0.1249  1.0000</r>
       <r>   1.6813  1.0000</r>
       <r>   2.6616  1.0000</r>
       <r>   6.9772  0.0000</r>
       <r>  10.5186  0.0000</r>
       <r>  12.8518  0.0000</r>
       <r>  15.4849  0.0000</r>
      </set>
      <set comment="kpoint 48">
       <r>  -1.3229  1.0000</r>
       <r>  -0.9257  1.0000</r>
       <r>   1.6374  1.0000</r>
       <r>   2.1647  1.0000</r>
       <r>   2.7899  1.0000</r>
       <r>   7.4926  0.0000</r>
       <r>   9.5207  0.0000</r>
       <r>  12.5603  0.0000</r>
       <r>  16.0410  0.0000</r>
      </set>
      <set comment="kpoint 49">
       <r>  -1.0776  1.0000</r>
       <r>  -0.8077  1.0000</r>
       <r>   1.1106  1.0000</r>
       <r>   2.0132  1.0000</r>
       <r>   2.9183  1.0000</r>
       <r>   7.8968  0.0000</r>
       <r>   9.7835  0.0000</r>
       <r>  12.6296  0.0000</r>
       <r>  14.4664  0.0000</r>
      </set>
      <set comment="kpoint 50">
       <r>  -1.2554  1.0000</r>
       <r>  -0.7981  1.0000</r>
       <r>   1.2709  1.0000</r>
       <r>   1.8796  1.0000</r>
       <r>   2.8280  1.0000</r>
       <r>   5.7189  0.0000</r>
       <r>  10.7775  0.0000</r>
       <r>  14.2242  0.0000</r>
       <r>  16.5583  0.0000</r>
      </set>
      <set comment="kpoint 51">
       <r>  -2.1686  1.0000</r>
       <r>   0.5370  1.0000</r>
       <r>   0.5370  1.0000</r>
       <r>   0.8296  1.0000</r>
       <r>   2.1123  1.0000</r>
       <r>   2.1123  1.0000</r>
       <r>  12.9234  0.0000</r>
       <r>  20.3059  0.0000</r>
       <r>  23.1723  0.0000</r>
      </set>
      <set comment="kpoint 52">
       <r>  -1.6145  1.0000</r>
       <r>   0.3050  1.0000</r>
       <r>   0.7006  1.0000</r>
       <r>   0.7994  1.0000</r>
       <r>   1.9688  1.0000</r>
       <r>   3.4004  1.0000</r>
       <r>  11.6069  0.0000</r>
       <r>  18.3163  0.0000</r>
       <r>  20.9526  0.0000</r>
      </set>
      <set comment="kpoint 53">
       <r>  -0.7798  1.0000</r>
       <r>   0.0041  1.0000</r>
       <r>   0.3515  1.0000</r>
       <r>   1.2166  1.0000</r>
       <r>   2.0090  1.0000</r>
       <r>   5.2445  0.0000</r>
       <r>  11.2256  0.0000</r>
       <r>  13.8018  0.0000</r>
       <r>  20.7204  0.0000</r>
      </set>
      <set comment="kpoint 54">
       <r>  -0.9666  1.0000</r>
       <r>  -0.2457  1.0000</r>
       <r>   0.7167  1.0000</r>
       <r>   1.6248  1.0000</r>
       <r>   2.4578  1.0000</r>
       <r>   7.3770  0.0000</r>
       <r>   9.5973  0.0000</r>
       <r>  12.2373  0.0000</r>
       <r>  18.1029  0.0000</r>
      </set>
      <set comment="kpoint 55">
       <r>  -1.6071  1.0000</r>
       <r>   0.2214  1.0000</r>
       <r>   0.7033  1.0000</r>
       <r>   0.9880  1.0000</r>
       <r>   2.6986  1.0000</r>
       <r>   3.7572  1.0000</r>
       <r>  10.0060  0.0000</r>
       <r>  19.5065  0.0000</r>
       <r>  20.1056  0.0000</r>
      </set>
      <set comment="kpoint 56">
       <r>  -1.0123  1.0000</r>
       <r>  -0.1357  1.0000</r>
       <r>   0.5938  1.0000</r>
       <r>   1.1823  1.0000</r>
       <r>   2.5352  1.0000</r>
       <r>   5.7434  0.0000</r>
       <r>   9.2311  0.0000</r>
       <r>  16.1779  0.0000</r>
       <r>  17.8637  0.0000</r>
      </set>
      <set comment="kpoint 57">
       <r>  -0.6993  1.0000</r>
       <r>  -0.2875  1.0000</r>
       <r>   0.3505  1.0000</r>
       <r>   1.6035  1.0000</r>
       <r>   2.6613  1.0000</r>
       <r>   7.7110  0.0000</r>
       <r>   9.8434  0.0000</r>
       <r>  12.2076  0.0000</r>
       <r>  15.9466  0.0000</r>
      </set>
      <set comment="kpoint 58">
       <r>  -1.0543  1.0000</r>
       <r>  -0.1898  1.0000</r>
       <r>   0.7354  1.0000</r>
       <r>   1.3136  1.0000</r>
       <r>   2.6519  1.0000</r>
       <r>   7.2852  0.0000</r>
       <r>   8.0243  0.0000</r>
       <r>  14.7565  0.0000</r>
       <r>  18.4199  0.0000</r>
      </set>
      <set comment="kpoint 59">
       <r>  -1.9366  1.0000</r>
       <r>   0.3669  1.0000</r>
       <r>   0.3669  1.0000</r>
       <r>   2.6337  1.0000</r>
       <r>   2.6337  1.0000</r>
       <r>   3.2491  1.0000</r>
       <r>   8.4440  0.0000</r>
       <r>  19.4504  0.0000</r>
       <r>  21.7712  0.0000</r>
      </set>
      <set comment="kpoint 60">
       <r>  -1.5842  1.0000</r>
       <r>   0.1531  1.0000</r>
       <r>   0.6008  1.0000</r>
       <r>   1.6504  1.0000</r>
       <r>   2.6073  1.0000</r>
       <r>   5.4352  0.0000</r>
       <r>   7.5645  0.0000</r>
       <r>  18.4644  0.0000</r>
       <r>  20.2601  0.0000</r>
      </set>
     </set>
    </set>
   </array>
  </eigenvalues>
  <dos>
   <i name="efermi""      4.55981025</i>
   <total>
    <array>
     <dimension dim="1">gridpoints</dimension>
     <dimension dim="2">spin</dimension>
     <field>energy</field>
     <field>total</field>
     <field>integrated</field>
     <set>
      <set comment="spin 1">
       <r>  -5.5950   0.0000   0.0000 </r>
       <r>  -5.4918   0.0000   0.0000 </r>
       <r>  -5.3886   0.0000   0.0000 </r>
       <r>  -5.2853   0.0000   0.0000 </r>
       <r>  -5.1821   0.0000   0.0000 </r>
       <r>  -5.0788   0.0000   0.0000 </r>
       <r>  -4.9756   0.0000   0.0000 </r>
       <r>  -4.8723   0.0000   0.0000 </r>
       <r>  -4.7691   0.0000   0.0000 </r>
       <r>  -4.6658   0.0000   0.0000 </r>
       <r>  -4.5626   0.0000   0.0000 </r>
       <r>  -4.4593   0.0000   0.0000 </r>
       <r>  -4.3561   0.0006   0.0001 </r>
       <r>  -4.2528   0.0127   0.0014 </r>
       <r>  -4.1496   0.0398   0.0055 </r>
       <r>  -4.0463   0.0216   0.0077 </r>
       <r>  -3.9431   0.0258   0.0104 </r>
       <r>  -3.8399   0.1094   0.0217 </r>
       <r>  -3.7366   0.0831   0.0303 </r>
       <r>  -3.6334   0.0323   0.0336 </r>
       <r>  -3.5301   0.1073   0.0447 </r>
       <r>  -3.4269   0.0869   0.0536 </r>
       <r>  -3.3236   0.0430   0.0581 </r>
       <r>  -3.2204   0.1419   0.0727 </r>
       <r>  -3.1171   0.1163   0.0847 </r>
       <r>  -3.0139   0.0923   0.0942 </r>
       <r>  -2.9106   0.2406   0.1191 </r>
       <r>  -2.8074   0.1552   0.1351 </r>
       <r>  -2.7041   0.1262   0.1481 </r>
       <r>  -2.6009   0.0737   0.1557 </r>
       <r>  -2.4976   0.0648   0.1624 </r>
       <r>  -2.3944   0.2678   0.1901 </r>
       <r>  -2.2912   0.3005   0.2211 </r>
       <r>  -2.1879   0.2603   0.2480 </r>
       <r>  -2.0847   0.3403   0.2831 </r>
       <r>  -1.9814   0.2711   0.3111 </r>
       <r>  -1.8782   0.5277   0.3656 </r>
       <r>  -1.7749   0.7506   0.4431 </r>
       <r>  -1.6717   0.7598   0.5215 </r>
       <r>  -1.5684   0.9347   0.6181 </r>
       <r>  -1.4652   1.0592   0.7274 </r>
       <r>  -1.3619   1.6982   0.9027 </r>
       <r>  -1.2587   1.9131   1.1003 </r>
       <r>  -1.1554   1.8302   1.2892 </r>
       <r>  -1.0522   2.2053   1.5169 </r>
       <r>  -0.9489   2.1228   1.7361 </r>
       <r>  -0.8457   1.6801   1.9095 </r>
       <r>  -0.7425   1.8692   2.1025 </r>
       <r>  -0.6392   1.7579   2.2840 </r>
       <r>  -0.5360   1.5364   2.4427 </r>
       <r>  -0.4327   1.2730   2.5741 </r>
       <r>  -0.3295   1.5767   2.7369 </r>
       <r>  -0.2262   2.1568   2.9596 </r>
       <r>  -0.1230   2.1161   3.1781 </r>
       <r>  -0.0197   2.2751   3.4130 </r>
       <r>   0.0835   2.0439   3.6240 </r>
       <r>   0.1868   2.1974   3.8509 </r>
       <r>   0.2900   2.6202   4.1214 </r>
       <r>   0.3933   2.8943   4.4202 </r>
       <r>   0.4965   2.8267   4.7121 </r>
       <r>   0.5998   2.9849   5.0202 </r>
       <r>   0.7030   3.2416   5.3549 </r>
       <r>   0.8062   3.3390   5.6997 </r>
       <r>   0.9095   2.3764   5.9450 </r>
       <r>   1.0127   2.1014   6.1620 </r>
       <r>   1.1160   2.0072   6.3692 </r>
       <r>   1.2192   2.0187   6.5776 </r>
       <r>   1.3225   1.7038   6.7536 </r>
       <r>   1.4257   1.8001   6.9394 </r>
       <r>   1.5290   2.4857   7.1961 </r>
       <r>   1.6322   3.0343   7.5093 </r>
       <r>   1.7355   2.4229   7.7595 </r>
       <r>   1.8387   1.5780   7.9224 </r>
       <r>   1.9420   2.2124   8.1508 </r>
       <r>   2.0452   2.6582   8.4253 </r>
       <r>   2.1484   1.4812   8.5782 </r>
       <r>   2.2517   1.4033   8.7231 </r>
       <r>   2.3549   2.4933   8.9805 </r>
       <r>   2.4582   2.1845   9.2061 </r>
       <r>   2.5614   2.1449   9.4275 </r>
       <r>   2.6647   3.0771   9.7452 </r>
       <r>   2.7679   3.5770  10.1146 </r>
       <r>   2.8712   2.3789  10.3602 </r>
       <r>   2.9744   1.3277  10.4972 </r>
       <r>   3.0777   0.3898  10.5375 </r>
       <r>   3.1809   0.1126  10.5491 </r>
       <r>   3.2842   0.1647  10.5661 </r>
       <r>   3.3874   0.1681  10.5835 </r>
       <r>   3.4907   0.4469  10.6296 </r>
       <r>   3.5939   0.6568  10.6974 </r>
       <r>   3.6971   0.4407  10.7429 </r>
       <r>   3.8004   0.2901  10.7729 </r>
       <r>   3.9036   0.0766  10.7808 </r>
       <r>   4.0069   0.0216  10.7830 </r>
       <r>   4.1101   0.1035  10.7937 </r>
       <r>   4.2134   0.1789  10.8122 </r>
       <r>   4.3166   0.4405  10.8577 </r>
       <r>   4.4199   0.7165  10.9316 </r>
       <r>   4.5231   0.5165  10.9850 </r>
       <r>   4.6264   0.3693  11.0231 </r>
       <r>   4.7296   0.1553  11.0391 </r>
       <r>   4.8329   0.1457  11.0542 </r>
       <r>   4.9361   0.2375  11.0787 </r>
       <r>   5.0394   0.1217  11.0913 </r>
       <r>   5.1426   0.2431  11.1164 </r>
       <r>   5.2458   0.2640  11.1436 </r>
       <r>   5.3491   0.2539  11.1698 </r>
       <r>   5.4523   0.5119  11.2227 </r>
       <r>   5.5556   0.4154  11.2656 </r>
       <r>   5.6588   0.1710  11.2832 </r>
       <r>   5.7621   0.3495  11.3193 </r>
       <r>   5.8653   0.2758  11.3478 </r>
       <r>   5.9686   0.1772  11.3661 </r>
       <r>   6.0718   0.3467  11.4019 </r>
       <r>   6.1751   0.4556  11.4489 </r>
       <r>   6.2783   0.1455  11.4639 </r>
       <r>   6.3816   0.2028  11.4849 </r>
       <r>   6.4848   0.2579  11.5115 </r>
       <r>   6.5881   0.2701  11.5394 </r>
       <r>   6.6913   0.2511  11.5653 </r>
       <r>   6.7945   0.4286  11.6096 </r>
       <r>   6.8978   0.3818  11.6490 </r>
       <r>   7.0010   0.2801  11.6779 </r>
       <r>   7.1043   0.1533  11.6937 </r>
       <r>   7.2075   0.0507  11.6990 </r>
       <r>   7.3108   0.2228  11.7220 </r>
       <r>   7.4140   0.4954  11.7731 </r>
       <r>   7.5173   0.5530  11.8302 </r>
       <r>   7.6205   0.5583  11.8879 </r>
       <r>   7.7238   0.4229  11.9315 </r>
       <r>   7.8270   0.2601  11.9584 </r>
       <r>   7.9303   0.2796  11.9873 </r>
       <r>   8.0335   0.2669  12.0148 </r>
       <r>   8.1368   0.3655  12.0526 </r>
       <r>   8.2400   0.4628  12.1003 </r>
       <r>   8.3432   0.1636  12.1172 </r>
       <r>   8.4465   0.1503  12.1327 </r>
       <r>   8.5497   0.5594  12.1905 </r>
       <r>   8.6530   0.5845  12.2508 </r>
       <r>   8.7562   0.1648  12.2679 </r>
       <r>   8.8595   0.1184  12.2801 </r>
       <r>   8.9627   0.0805  12.2884 </r>
       <r>   9.0660   0.0812  12.2968 </r>
       <r>   9.1692   0.3984  12.3379 </r>
       <r>   9.2725   0.4984  12.3894 </r>
       <r>   9.3757   0.1613  12.4060 </r>
       <r>   9.4790   0.1470  12.4212 </r>
       <r>   9.5822   0.4402  12.4666 </r>
       <r>   9.6855   0.3287  12.5006 </r>
       <r>   9.7887   0.3681  12.5386 </r>
       <r>   9.8919   0.6120  12.6018 </r>
       <r>   9.9952   0.5377  12.6573 </r>
       <r>  10.0984   0.4541  12.7042 </r>
       <r>  10.2017   0.3881  12.7442 </r>
       <r>  10.3049   0.3699  12.7824 </r>
       <r>  10.4082   0.4770  12.8317 </r>
       <r>  10.5114   0.6294  12.8967 </r>
       <r>  10.6147   0.4114  12.9391 </r>
       <r>  10.7179   0.1037  12.9498 </r>
       <r>  10.8212   0.1222  12.9625 </r>
       <r>  10.9244   0.0570  12.9683 </r>
       <r>  11.0277   0.0240  12.9708 </r>
       <r>  11.1309   0.1942  12.9909 </r>
       <r>  11.2342   0.4698  13.0394 </r>
       <r>  11.3374   0.4336  13.0841 </r>
       <r>  11.4406   0.2014  13.1049 </r>
       <r>  11.5439   0.0888  13.1141 </r>
       <r>  11.6471   0.2508  13.1400 </r>
       <r>  11.7504   0.5382  13.1956 </r>
       <r>  11.8536   0.4245  13.2394 </r>
       <r>  11.9569   0.3012  13.2705 </r>
       <r>  12.0601   0.2555  13.2969 </r>
       <r>  12.1634   0.4912  13.3476 </r>
       <r>  12.2666   0.8282  13.4331 </r>
       <r>  12.3699   0.6193  13.4970 </r>
       <r>  12.4731   0.2809  13.5260 </r>
       <r>  12.5764   0.2804  13.5550 </r>
       <r>  12.6796   0.3397  13.5901 </r>
       <r>  12.7828   0.2693  13.6179 </r>
       <r>  12.8861   0.5059  13.6701 </r>
       <r>  12.9893   0.3046  13.7016 </r>
       <r>  13.0926   0.1920  13.7214 </r>
       <r>  13.1958   0.2245  13.7446 </r>
       <r>  13.2991   0.0811  13.7529 </r>
       <r>  13.4023   0.2108  13.7747 </r>
       <r>  13.5056   0.5269  13.8291 </r>
       <r>  13.6088   0.6162  13.8927 </r>
       <r>  13.7121   0.5316  13.9476 </r>
       <r>  13.8153   0.5132  14.0006 </r>
       <r>  13.9186   0.3986  14.0417 </r>
       <r>  14.0218   0.1277  14.0549 </r>
       <r>  14.1251   0.1454  14.0699 </r>
       <r>  14.2283   0.4267  14.1140 </r>
       <r>  14.3315   0.5694  14.1728 </r>
       <r>  14.4348   0.6641  14.2413 </r>
       <r>  14.5380   0.6646  14.3100 </r>
       <r>  14.6413   0.3631  14.3474 </r>
       <r>  14.7445   0.2772  14.3761 </r>
       <r>  14.8478   0.5899  14.4370 </r>
       <r>  14.9510   0.8749  14.5273 </r>
       <r>  15.0543   0.9058  14.6208 </r>
       <r>  15.1575   0.5797  14.6807 </r>
       <r>  15.2608   0.3913  14.7211 </r>
       <r>  15.3640   0.5161  14.7743 </r>
       <r>  15.4673   0.7051  14.8471 </r>
       <r>  15.5705   0.5944  14.9085 </r>
       <r>  15.6738   0.1251  14.9214 </r>
       <r>  15.7770   0.0081  14.9223 </r>
       <r>  15.8802   0.0810  14.9306 </r>
       <r>  15.9835   0.3537  14.9671 </r>
       <r>  16.0867   0.5420  15.0231 </r>
       <r>  16.1900   0.5485  15.0797 </r>
       <r>  16.2932   0.7115  15.1532 </r>
       <r>  16.3965   1.0596  15.2626 </r>
       <r>  16.4997   0.7190  15.3368 </r>
       <r>  16.6030   0.5021  15.3887 </r>
       <r>  16.7062   0.6552  15.4563 </r>
       <r>  16.8095   0.7235  15.5310 </r>
       <r>  16.9127   0.5575  15.5886 </r>
       <r>  17.0160   0.3064  15.6202 </r>
       <r>  17.1192   0.1212  15.6327 </r>
       <r>  17.2225   0.4132  15.6754 </r>
       <r>  17.3257   0.4331  15.7201 </r>
       <r>  17.4289   0.1899  15.7397 </r>
       <r>  17.5322   0.2472  15.7652 </r>
       <r>  17.6354   0.6990  15.8374 </r>
       <r>  17.7387   0.8368  15.9238 </r>
       <r>  17.8419   0.6339  15.9892 </r>
       <r>  17.9452   0.5939  16.0506 </r>
       <r>  18.0484   0.4102  16.0929 </r>
       <r>  18.1517   0.3062  16.1245 </r>
       <r>  18.2549   0.3059  16.1561 </r>
       <r>  18.3582   0.6507  16.2233 </r>
       <r>  18.4614   0.9171  16.3180 </r>
       <r>  18.5647   0.5415  16.3739 </r>
       <r>  18.6679   0.1080  16.3850 </r>
       <r>  18.7712   0.1801  16.4036 </r>
       <r>  18.8744   0.2897  16.4336 </r>
       <r>  18.9776   0.4220  16.4771 </r>
       <r>  19.0809   0.6051  16.5396 </r>
       <r>  19.1841   0.4874  16.5899 </r>
       <r>  19.2874   0.4764  16.6391 </r>
       <r>  19.3906   0.6382  16.7050 </r>
       <r>  19.4939   0.7548  16.7829 </r>
       <r>  19.5971   0.9107  16.8770 </r>
       <r>  19.7004   0.5457  16.9333 </r>
       <r>  19.8036   0.2033  16.9543 </r>
       <r>  19.9069   0.3835  16.9939 </r>
       <r>  20.0101   0.7495  17.0713 </r>
       <r>  20.1134   0.7417  17.1478 </r>
       <r>  20.2166   0.6688  17.2169 </r>
       <r>  20.3199   0.4496  17.2633 </r>
       <r>  20.4231   0.2776  17.2920 </r>
       <r>  20.5263   0.0846  17.3007 </r>
       <r>  20.6296   0.2709  17.3287 </r>
       <r>  20.7328   0.5090  17.3812 </r>
       <r>  20.8361   0.3460  17.4170 </r>
       <r>  20.9393   0.3920  17.4574 </r>
       <r>  21.0426   0.5921  17.5186 </r>
       <r>  21.1458   0.4943  17.5696 </r>
       <r>  21.2491   0.4378  17.6148 </r>
       <r>  21.3523   0.1650  17.6318 </r>
       <r>  21.4556   0.0959  17.6417 </r>
       <r>  21.5588   0.3095  17.6737 </r>
       <r>  21.6621   0.6393  17.7397 </r>
       <r>  21.7653   0.4966  17.7910 </r>
       <r>  21.8686   0.1230  17.8037 </r>
       <r>  21.9718   0.0097  17.8047 </r>
       <r>  22.0750   0.0011  17.8048 </r>
       <r>  22.1783   0.0259  17.8075 </r>
       <r>  22.2815   0.1225  17.8201 </r>
       <r>  22.3848   0.2025  17.8410 </r>
       <r>  22.4880   0.3370  17.8758 </r>
       <r>  22.5913   0.2507  17.9017 </r>
       <r>  22.6945   0.0612  17.9080 </r>
       <r>  22.7978   0.1748  17.9261 </r>
       <r>  22.9010   0.3240  17.9595 </r>
       <r>  23.0043   0.1487  17.9749 </r>
       <r>  23.1075   0.0296  17.9779 </r>
       <r>  23.2108   0.0402  17.9821 </r>
       <r>  23.3140   0.0211  17.9843 </r>
       <r>  23.4172   0.0145  17.9858 </r>
       <r>  23.5205   0.0399  17.9899 </r>
       <r>  23.6237   0.0206  17.9920 </r>
       <r>  23.7270   0.0017  17.9922 </r>
       <r>  23.8302   0.0018  17.9924 </r>
       <r>  23.9335   0.0208  17.9945 </r>
       <r>  24.0367   0.0398  17.9986 </r>
       <r>  24.1400   0.0127  17.9999 </r>
       <r>  24.2432   0.0006  18.0000 </r>
       <r>  24.3465   0.0000  18.0000 </r>
       <r>  24.4497   0.0000  18.0000 </r>
       <r>  24.5530   0.0000  18.0000 </r>
       <r>  24.6562   0.0000  18.0000 </r>
       <r>  24.7595   0.0000  18.0000 </r>
       <r>  24.8627   0.0000  18.0000 </r>
       <r>  24.9659   0.0000  18.0000 </r>
       <r>  25.0692   0.0000  18.0000 </r>
       <r>  25.1724   0.0000  18.0000 </r>
       <r>  25.2757   0.0000  18.0000 </r>
       <r>  25.3789   0.0000  18.0000 </r>
      </set>
     </set>
    </array>
   </total>
   <partial>
    <array>
     <dimension dim="1">gridpoints</dimension>
     <dimension dim="2">spin</dimension>
     <dimension dim="3">ion</dimension>
     <field>energy</field>
     <field>  s</field>
     <field> py</field>
     <field> pz</field>
     <field> px</field>
     <field>dxy</field>
     <field>dyz</field>
     <field>dz2</field>
     <field>dxz</field>
     <field>dx2</field>
     <set>
      <set comment="ion 1">
       <set comment="spin 1">
        <r>  -5.5950   0.0000   0.0000   0.0000   0.0000   0.0000   0.0000   0.0000   0.0000   0.0000 </r>
        <r>  -5.4918   0.0000   0.0000   0.0000   0.0000   0.0000   0.0000   0.0000   0.0000   0.0000 </r>
        <r>  -5.3886   0.0000   0.0000   0.0000   0.0000   0.0000   0.0000   0.0000   0.0000   0.0000 </r>
        <r>  -5.2853   0.0000   0.0000   0.0000   0.0000   0.0000   0.0000   0.0000   0.0000   0.0000 </r>
        <r>  -5.1821   0.0000   0.0000   0.0000   0.0000   0.0000   0.0000   0.0000   0.0000   0.0000 </r>
        <r>  -5.0788   0.0000   0.0000   0.0000   0.0000   0.0000   0.0000   0.0000   0.0000   0.0000 </r>
        <r>  -4.9756   0.0000   0.0000   0.0000   0.0000   0.0000   0.0000   0.0000   0.0000   0.0000 </r>
        <r>  -4.8723   0.0000   0.0000   0.0000   0.0000   0.0000   0.0000   0.0000   0.0000   0.0000 </r>
        <r>  -4.7691   0.0000   0.0000   0.0000   0.0000   0.0000   0.0000   0.0000   0.0000   0.0000 </r>
        <r>  -4.6658   0.0000   0.0000   0.0000   0.0000   0.0000   0.0000   0.0000   0.0000   0.0000 </r>
        <r>  -4.5626   0.0000   0.0000   0.0000   0.0000   0.0000   0.0000   0.0000   0.0000   0.0000 </r>
        <r>  -4.4593   0.0000   0.0000   0.0000   0.0000   0.0000   0.0000   0.0000   0.0000   0.0000 </r>
        <r>  -4.3561   0.0004   0.0000   0.0000   0.0000   0.0000   0.0000   0.0000   0.0000   0.0000 </r>
        <r>  -4.2528   0.0072   0.0000   0.0000   0.0000   0.0000   0.0000   0.0000   0.0000   0.0000 </r>
        <r>  -4.1496   0.0225   0.0001   0.0001   0.0001   0.0000   0.0000   0.0000   0.0000   0.0000 </r>
        <r>  -4.0463   0.0122   0.0000   0.0000   0.0000   0.0000   0.0000   0.0000   0.0000   0.0000 </r>
        <r>  -3.9431   0.0142   0.0000   0.0000   0.0004   0.0000   0.0000   0.0000   0.0000   0.0000 </r>
        <r>  -3.8399   0.0602   0.0002   0.0002   0.0016   0.0001   0.0000   0.0000   0.0001   0.0001 </r>
        <r>  -3.7366   0.0458   0.0001   0.0001   0.0012   0.0001   0.0000   0.0000   0.0001   0.0001 </r>
        <r>  -3.6334   0.0174   0.0003   0.0003   0.0002   0.0000   0.0001   0.0000   0.0000   0.0000 </r>
        <r>  -3.5301   0.0574   0.0015   0.0015   0.0002   0.0001   0.0007   0.0000   0.0001   0.0001 </r>
        <r>  -3.4269   0.0465   0.0012   0.0012   0.0001   0.0001   0.0006   0.0000   0.0001   0.0000 </r>
        <r>  -3.3236   0.0224   0.0003   0.0010   0.0002   0.0001   0.0002   0.0002   0.0002   0.0000 </r>
        <r>  -3.2204   0.0734   0.0006   0.0044   0.0006   0.0004   0.0006   0.0010   0.0006   0.0000 </r>
        <r>  -3.1171   0.0601   0.0004   0.0038   0.0005   0.0003   0.0004   0.0009   0.0004   0.0000 </r>
        <r>  -3.0139   0.0464   0.0009   0.0006   0.0028   0.0015   0.0002   0.0004   0.0003   0.0003 </r>
        <r>  -2.9106   0.1202   0.0028   0.0003   0.0085   0.0047   0.0005   0.0007   0.0007   0.0009 </r>
        <r>  -2.8074   0.0766   0.0017   0.0004   0.0054   0.0033   0.0008   0.0004   0.0012   0.0005 </r>
        <r>  -2.7041   0.0597   0.0012   0.0011   0.0039   0.0033   0.0021   0.0001   0.0031   0.0004 </r>
        <r>  -2.6009   0.0347   0.0007   0.0007   0.0022   0.0019   0.0014   0.0001   0.0019   0.0002 </r>
        <r>  -2.4976   0.0295   0.0013   0.0024   0.0003   0.0006   0.0026   0.0011   0.0006   0.0002 </r>
        <r>  -2.3944   0.1195   0.0048   0.0111   0.0004   0.0032   0.0110   0.0063   0.0035   0.0005 </r>
        <r>  -2.2912   0.1301   0.0048   0.0118   0.0008   0.0067   0.0139   0.0068   0.0070   0.0004 </r>
        <r>  -2.1879   0.1086   0.0030   0.0122   0.0007   0.0065   0.0131   0.0085   0.0065   0.0001 </r>
        <r>  -2.0847   0.1390   0.0029   0.0174   0.0010   0.0095   0.0170   0.0128   0.0096   0.0000 </r>
        <r>  -1.9814   0.0936   0.0016   0.0092   0.0021   0.0213   0.0236   0.0062   0.0207   0.0002 </r>
        <r>  -1.8782   0.1397   0.0034   0.0027   0.0089   0.0766   0.0743   0.0022   0.0667   0.0017 </r>
        <r>  -1.7749   0.2071   0.0074   0.0021   0.0173   0.1096   0.0918   0.0082   0.0799   0.0038 </r>
        <r>  -1.6717   0.1908   0.0065   0.0081   0.0142   0.1025   0.0850   0.0618   0.0663   0.0034 </r>
        <r>  -1.5684   0.1726   0.0039   0.0143   0.0056   0.1185   0.1214   0.1662   0.0904   0.0025 </r>
        <r>  -1.4652   0.1790   0.0039   0.0223   0.0059   0.1147   0.0951   0.2962   0.0594   0.0094 </r>
        <r>  -1.3619   0.2443   0.0067   0.0311   0.0095   0.3059   0.1511   0.4451   0.0809   0.0128 </r>
        <r>  -1.2587   0.2186   0.0094   0.0237   0.0097   0.4857   0.1999   0.4422   0.0930   0.0088 </r>
        <r>  -1.1554   0.1790   0.0093   0.0272   0.0071   0.6053   0.1503   0.3987   0.0606   0.0053 </r>
        <r>  -1.0522   0.1627   0.0103   0.0267   0.0087   0.8642   0.1413   0.4897   0.0583   0.0114 </r>
        <r>  -0.9489   0.1302   0.0102   0.0162   0.0148   0.8205   0.1949   0.4291   0.0627   0.0477 </r>
        <r>  -0.8457   0.1100   0.0131   0.0076   0.0246   0.6364   0.2017   0.2416   0.0394   0.0848 </r>
        <r>  -0.7425   0.0807   0.0155   0.0069   0.0236   0.7301   0.2524   0.3018   0.0290   0.0986 </r>
        <r>  -0.6392   0.0479   0.0162   0.0072   0.0161   0.6183   0.2324   0.3772   0.0222   0.1227 </r>
        <r>  -0.5360   0.0362   0.0193   0.0113   0.0168   0.5118   0.2019   0.3321   0.0244   0.1157 </r>
        <r>  -0.4327   0.0242   0.0171   0.0115   0.0157   0.3917   0.2107   0.2766   0.0232   0.0826 </r>
        <r>  -0.3295   0.0154   0.0174   0.0163   0.0191   0.6075   0.2525   0.2707   0.0377   0.0884 </r>
        <r>  -0.2262   0.0198   0.0281   0.0241   0.0217   0.6067   0.3987   0.4783   0.0653   0.1682 </r>
        <r>  -0.1230   0.0154   0.0304   0.0167   0.0188   0.2977   0.4296   0.7071   0.1218   0.1484 </r>
        <r>  -0.0197   0.0208   0.0215   0.0187   0.0214   0.4649   0.4928   0.5135   0.2338   0.1605 </r>
        <r>   0.0835   0.0230   0.0142   0.0169   0.0215   0.4663   0.4295   0.3879   0.1999   0.2024 </r>
        <r>   0.1868   0.0282   0.0176   0.0119   0.0234   0.4331   0.4358   0.5995   0.1517   0.2022 </r>
        <r>   0.2900   0.0483   0.0172   0.0253   0.0298   0.5229   0.6342   0.5754   0.1832   0.2335 </r>
        <r>   0.3933   0.0556   0.0156   0.0462   0.0399   0.6802   0.7651   0.3383   0.2400   0.3211 </r>
        <r>   0.4965   0.0403   0.0151   0.0349   0.0277   0.6522   0.5426   0.4824   0.2949   0.3889 </r>
        <r>   0.5998   0.0306   0.0137   0.0233   0.0158   0.5990   0.5353   0.6522   0.4262   0.3699 </r>
        <r>   0.7030   0.0353   0.0158   0.0397   0.0189   0.5850   0.7166   0.5246   0.5322   0.4217 </r>
        <r>   0.8062   0.0534   0.0215   0.0633   0.0286   0.4807   0.7794   0.3411   0.7249   0.4455 </r>
        <r>   0.9095   0.0464   0.0173   0.0418   0.0222   0.2384   0.5308   0.3230   0.5379   0.3333 </r>
        <r>   1.0127   0.0495   0.0147   0.0492   0.0170   0.1792   0.4891   0.3527   0.3652   0.3253 </r>
        <r>   1.1160   0.0295   0.0124   0.0436   0.0138   0.1389   0.4656   0.2311   0.4320   0.4140 </r>
        <r>   1.2192   0.0183   0.0141   0.0343   0.0156   0.1544   0.3606   0.2499   0.4123   0.5464 </r>
        <r>   1.3225   0.0131   0.0085   0.0218   0.0102   0.1107   0.1741   0.3121   0.2925   0.6004 </r>
        <r>   1.4257   0.0120   0.0035   0.0117   0.0068   0.0598   0.1254   0.2910   0.3344   0.8164 </r>
        <r>   1.5290   0.0210   0.0064   0.0232   0.0107   0.0755   0.2803   0.3953   0.4710   1.0052 </r>
        <r>   1.6322   0.0393   0.0157   0.0471   0.0171   0.1200   0.4526   0.5591   0.4584   1.0507 </r>
        <r>   1.7355   0.0319   0.0143   0.0340   0.0174   0.0970   0.2498   0.5491   0.2991   0.9130 </r>
        <r>   1.8387   0.0168   0.0091   0.0131   0.0134   0.0546   0.0994   0.3131   0.2838   0.6496 </r>
        <r>   1.9420   0.0177   0.0059   0.0184   0.0089   0.0974   0.2227   0.2880   0.5566   0.8520 </r>
        <r>   2.0452   0.0258   0.0057   0.0300   0.0068   0.1612   0.3351   0.3816   0.5897   0.9492 </r>
        <r>   2.1484   0.0136   0.0037   0.0138   0.0036   0.0734   0.1784   0.1565   0.2882   0.6597 </r>
        <r>   2.2517   0.0068   0.0044   0.0079   0.0045   0.0531   0.2125   0.0829   0.3761   0.5820 </r>
        <r>   2.3549   0.0119   0.0057   0.0150   0.0063   0.1240   0.3534   0.1523   0.8176   0.8856 </r>
        <r>   2.4582   0.0105   0.0033   0.0119   0.0048   0.1613   0.2160   0.1606   0.7276   0.7907 </r>
        <r>   2.5614   0.0112   0.0026   0.0066   0.0060   0.1959   0.1768   0.1756   0.8220   0.6630 </r>
        <r>   2.6647   0.0137   0.0028   0.0060   0.0063   0.2606   0.3299   0.2330   1.4543   0.6656 </r>
        <r>   2.7679   0.0349   0.0053   0.0137   0.0089   0.3031   0.5467   0.2817   1.6401   0.6097 </r>
        <r>   2.8712   0.0560   0.0064   0.0191   0.0116   0.2290   0.4148   0.2285   0.9665   0.3313 </r>
        <r>   2.9744   0.0246   0.0025   0.0076   0.0062   0.0803   0.1669   0.0730   0.8386   0.0735 </r>
        <r>   3.0777   0.0029   0.0006   0.0010   0.0010   0.0070   0.0506   0.0057   0.3001   0.0093 </r>
        <r>   3.1809   0.0076   0.0043   0.0043   0.0032   0.0007   0.0349   0.0048   0.0197   0.0147 </r>
        <r>   3.2842   0.0146   0.0090   0.0090   0.0071   0.0017   0.0523   0.0079   0.0019   0.0237 </r>
        <r>   3.3874   0.0162   0.0061   0.0067   0.0037   0.0010   0.0651   0.0114   0.0013   0.0294 </r>
        <r>   3.4907   0.0479   0.0086   0.0154   0.0023   0.0012   0.1962   0.0453   0.0042   0.0742 </r>
        <r>   3.5939   0.0753   0.0109   0.0279   0.0029   0.0022   0.2830   0.0760   0.0098   0.0887 </r>
        <r>   3.6971   0.0578   0.0063   0.0297   0.0025   0.0017   0.1696   0.0569   0.0159   0.0332 </r>
        <r>   3.8004   0.0396   0.0054   0.0231   0.0041   0.0023   0.0870   0.0424   0.0253   0.0082 </r>
        <r>   3.9036   0.0100   0.0020   0.0058   0.0018   0.0010   0.0174   0.0123   0.0105   0.0008 </r>
        <r>   4.0069   0.0034   0.0003   0.0020   0.0003   0.0001   0.0041   0.0032   0.0039   0.0000 </r>
        <r>   4.1101   0.0171   0.0011   0.0108   0.0011   0.0005   0.0189   0.0147   0.0189   0.0000 </r>
        <r>   4.2134   0.0306   0.0019   0.0224   0.0025   0.0119   0.0222   0.0250   0.0223   0.0002 </r>
        <r>   4.3166   0.0750   0.0100   0.0331   0.0161   0.1165   0.0125   0.0682   0.0142   0.0027 </r>
        <r>   4.4199   0.1087   0.0277   0.0265   0.0420   0.2280   0.0053   0.1081   0.0120   0.0101 </r>
        <r>   4.5231   0.0626   0.0297   0.0246   0.0442   0.1322   0.0040   0.0570   0.0119   0.0158 </r>
        <r>   4.6264   0.0531   0.0163   0.0127   0.0358   0.1015   0.0025   0.0342   0.0072   0.0151 </r>
        <r>   4.7296   0.0277   0.0037   0.0029   0.0132   0.0479   0.0036   0.0167   0.0026   0.0056 </r>
        <r>   4.8329   0.0272   0.0030   0.0133   0.0028   0.0044   0.0354   0.0179   0.0098   0.0021 </r>
        <r>   4.9361   0.0444   0.0050   0.0236   0.0032   0.0006   0.0625   0.0294   0.0171   0.0029 </r>
        <r>   5.0394   0.0229   0.0018   0.0168   0.0010   0.0002   0.0300   0.0138   0.0063   0.0010 </r>
        <r>   5.1426   0.0473   0.0020   0.0436   0.0003   0.0000   0.0565   0.0232   0.0060   0.0020 </r>
        <r>   5.2458   0.0570   0.0056   0.0348   0.0008   0.0004   0.0704   0.0187   0.0045   0.0092 </r>
        <r>   5.3491   0.0530   0.0123   0.0165   0.0089   0.0062   0.0623   0.0092   0.0068   0.0192 </r>
        <r>   5.4523   0.0937   0.0274   0.0358   0.0271   0.0170   0.1047   0.0219   0.0176   0.0362 </r>
        <r>   5.5556   0.0844   0.0188   0.0326   0.0154   0.0078   0.0995   0.0235   0.0092   0.0225 </r>
        <r>   5.6588   0.0380   0.0049   0.0186   0.0028   0.0006   0.0400   0.0138   0.0080   0.0042 </r>
        <r>   5.7621   0.0756   0.0087   0.0441   0.0051   0.0000   0.0729   0.0312   0.0230   0.0046 </r>
        <r>   5.8653   0.0517   0.0061   0.0491   0.0035   0.0000   0.0502   0.0211   0.0146   0.0033 </r>
        <r>   5.9686   0.0179   0.0024   0.0572   0.0020   0.0003   0.0154   0.0090   0.0062   0.0006 </r>
        <r>   6.0718   0.0494   0.0145   0.0612   0.0132   0.0026   0.0566   0.0318   0.0087   0.0022 </r>
        <r>   6.1751   0.0734   0.0200   0.0665   0.0179   0.0037   0.0842   0.0452   0.0104   0.0031 </r>
        <r>   6.2783   0.0307   0.0058   0.0166   0.0063   0.0086   0.0216   0.0124   0.0025   0.0010 </r>
        <r>   6.3816   0.0708   0.0074   0.0014   0.0135   0.0470   0.0015   0.0083   0.0009   0.0016 </r>
        <r>   6.4848   0.0848   0.0079   0.0099   0.0136   0.0464   0.0116   0.0133   0.0053   0.0016 </r>
        <r>   6.5881   0.0718   0.0042   0.0346   0.0042   0.0086   0.0413   0.0223   0.0172   0.0004 </r>
        <r>   6.6913   0.0627   0.0065   0.0306   0.0086   0.0185   0.0280   0.0174   0.0120   0.0009 </r>
        <r>   6.7945   0.0881   0.0134   0.0685   0.0211   0.0502   0.0274   0.0183   0.0080   0.0024 </r>
        <r>   6.8978   0.0708   0.0069   0.0786   0.0161   0.0339   0.0310   0.0135   0.0061   0.0037 </r>
        <r>   7.0010   0.0858   0.0036   0.0161   0.0272   0.0467   0.0065   0.0062   0.0026   0.0107 </r>
        <r>   7.1043   0.0531   0.0021   0.0007   0.0176   0.0298   0.0004   0.0030   0.0013   0.0070 </r>
        <r>   7.2075   0.0172   0.0006   0.0035   0.0025   0.0039   0.0038   0.0024   0.0038   0.0009 </r>
        <r>   7.3108   0.0820   0.0037   0.0153   0.0073   0.0117   0.0206   0.0088   0.0175   0.0028 </r>
        <r>   7.4140   0.1937   0.0092   0.0235   0.0223   0.0419   0.0376   0.0088   0.0284   0.0097 </r>
        <r>   7.5173   0.2040   0.0080   0.0409   0.0176   0.0497   0.0457   0.0071   0.0432   0.0064 </r>
        <r>   7.6205   0.2192   0.0093   0.0296   0.0164   0.0580   0.0439   0.0058   0.0484   0.0028 </r>
        <r>   7.7238   0.1879   0.0080   0.0196   0.0084   0.0286   0.0410   0.0063   0.0200   0.0020 </r>
        <r>   7.8270   0.1057   0.0035   0.0300   0.0009   0.0037   0.0344   0.0074   0.0035   0.0009 </r>
        <r>   7.9303   0.0679   0.0026   0.0636   0.0020   0.0032   0.0402   0.0127   0.0024   0.0004 </r>
        <r>   8.0335   0.0624   0.0109   0.0446   0.0109   0.0153   0.0232   0.0121   0.0024   0.0003 </r>
        <r>   8.1368   0.1231   0.0137   0.0366   0.0145   0.0189   0.0240   0.0165   0.0121   0.0007 </r>
        <r>   8.2400   0.1553   0.0135   0.0510   0.0136   0.0096   0.0427   0.0253   0.0237   0.0009 </r>
        <r>   8.3432   0.0486   0.0058   0.0191   0.0055   0.0022   0.0170   0.0100   0.0097   0.0003 </r>
        <r>   8.4465   0.0599   0.0040   0.0118   0.0048   0.0049   0.0129   0.0050   0.0049   0.0021 </r>
        <r>   8.5497   0.1969   0.0206   0.0505   0.0235   0.0143   0.0518   0.0211   0.0143   0.0077 </r>
        <r>   8.6530   0.1747   0.0286   0.0553   0.0296   0.0177   0.0604   0.0207   0.0219   0.0055 </r>
        <r>   8.7562   0.0472   0.0096   0.0146   0.0082   0.0061   0.0182   0.0040   0.0081   0.0010 </r>
        <r>   8.8595   0.0356   0.0092   0.0094   0.0050   0.0039   0.0138   0.0005   0.0040   0.0011 </r>
        <r>   8.9627   0.0240   0.0063   0.0065   0.0035   0.0027   0.0092   0.0003   0.0027   0.0008 </r>
        <r>   9.0660   0.0155   0.0042   0.0118   0.0066   0.0052   0.0042   0.0009   0.0043   0.0016 </r>
        <r>   9.1692   0.0688   0.0204   0.0633   0.0341   0.0277   0.0176   0.0052   0.0191   0.0074 </r>
        <r>   9.2725   0.0954   0.0280   0.0666   0.0461   0.0396   0.0174   0.0072   0.0216   0.0096 </r>
        <r>   9.3757   0.0370   0.0099   0.0150   0.0163   0.0146   0.0033   0.0026   0.0066   0.0035 </r>
        <r>   9.4790   0.0474   0.0085   0.0126   0.0129   0.0097   0.0006   0.0029   0.0020   0.0014 </r>
        <r>   9.5822   0.1203   0.0269   0.0353   0.0513   0.0318   0.0014   0.0077   0.0092   0.0067 </r>
        <r>   9.6855   0.0750   0.0181   0.0261   0.0471   0.0240   0.0024   0.0058   0.0107   0.0082 </r>
        <r>   9.7887   0.1053   0.0119   0.0422   0.0367   0.0193   0.0102   0.0091   0.0073   0.0098 </r>
        <r>   9.8919   0.1552   0.0232   0.0579   0.0740   0.0416   0.0181   0.0183   0.0168   0.0153 </r>
        <r>   9.9952   0.1855   0.0197   0.0445   0.0416   0.0281   0.0148   0.0292   0.0134   0.0068 </r>
        <r>  10.0984   0.1376   0.0154   0.0664   0.0227   0.0176   0.0243   0.0216   0.0066   0.0051 </r>
        <r>  10.2017   0.0955   0.0103   0.0744   0.0187   0.0108   0.0274   0.0216   0.0033   0.0059 </r>
        <r>  10.3049   0.1107   0.0175   0.0449   0.0174   0.0070   0.0234   0.0253   0.0133   0.0014 </r>
        <r>  10.4082   0.1041   0.0320   0.0603   0.0320   0.0092   0.0337   0.0284   0.0230   0.0004 </r>
        <r>  10.5114   0.1289   0.0467   0.0736   0.0574   0.0197   0.0334   0.0344   0.0197   0.0015 </r>
        <r>  10.6147   0.0889   0.0318   0.0423   0.0428   0.0153   0.0186   0.0193   0.0085   0.0012 </r>
        <r>  10.7179   0.0263   0.0082   0.0109   0.0101   0.0041   0.0029   0.0030   0.0011   0.0002 </r>
        <r>  10.8212   0.0375   0.0101   0.0133   0.0102   0.0060   0.0002   0.0001   0.0002   0.0000 </r>
        <r>  10.9244   0.0176   0.0047   0.0062   0.0047   0.0028   0.0001   0.0000   0.0001   0.0000 </r>
        <r>  11.0277   0.0074   0.0019   0.0032   0.0015   0.0008   0.0000   0.0000   0.0001   0.0006 </r>
        <r>  11.1309   0.0579   0.0151   0.0251   0.0122   0.0061   0.0003   0.0007   0.0018   0.0067 </r>
        <r>  11.2342   0.1247   0.0379   0.0515   0.0374   0.0186   0.0013   0.0045   0.0094   0.0207 </r>
        <r>  11.3374   0.1018   0.0368   0.0393   0.0399   0.0215   0.0053   0.0058   0.0140   0.0199 </r>
        <r>  11.4406   0.0460   0.0173   0.0173   0.0168   0.0116   0.0092   0.0014   0.0098   0.0046 </r>
        <r>  11.5439   0.0196   0.0072   0.0072   0.0082   0.0058   0.0049   0.0004   0.0053   0.0007 </r>
        <r>  11.6471   0.0458   0.0166   0.0182   0.0388   0.0195   0.0088   0.0035   0.0114   0.0019 </r>
        <r>  11.7504   0.0848   0.0307   0.0379   0.1042   0.0461   0.0154   0.0116   0.0163   0.0024 </r>
        <r>  11.8536   0.0926   0.0237   0.0428   0.0634   0.0271   0.0080   0.0110   0.0079   0.0018 </r>
        <r>  11.9569   0.1000   0.0194   0.0455   0.0160   0.0068   0.0015   0.0085   0.0016   0.0014 </r>
        <r>  12.0601   0.0595   0.0229   0.0267   0.0249   0.0097   0.0035   0.0143   0.0032   0.0013 </r>
        <r>  12.1634   0.0675   0.0415   0.0404   0.0685   0.0192   0.0094   0.0519   0.0085   0.0141 </r>
        <r>  12.2666   0.1349   0.0687   0.0711   0.1095   0.0265   0.0197   0.0543   0.0184   0.0359 </r>
        <r>  12.3699   0.1338   0.0576   0.0534   0.0682   0.0125   0.0170   0.0284   0.0130   0.0164 </r>
        <r>  12.4731   0.0780   0.0202   0.0345   0.0212   0.0035   0.0044   0.0227   0.0026   0.0013 </r>
        <r>  12.5764   0.0329   0.0246   0.0180   0.0495   0.0140   0.0012   0.0381   0.0011   0.0002 </r>
        <r>  12.6796   0.0094   0.0283   0.0083   0.0914   0.0261   0.0021   0.0403   0.0019   0.0005 </r>
        <r>  12.7828   0.0169   0.0128   0.0432   0.0448   0.0106   0.0137   0.0198   0.0069   0.0010 </r>
        <r>  12.8861   0.0494   0.0164   0.1307   0.0362   0.0042   0.0420   0.0248   0.0205   0.0026 </r>
        <r>  12.9893   0.0342   0.0123   0.0722   0.0218   0.0047   0.0248   0.0120   0.0132   0.0014 </r>
        <r>  13.0926   0.0340   0.0171   0.0223   0.0154   0.0091   0.0124   0.0020   0.0103   0.0003 </r>
        <r>  13.1958   0.0419   0.0218   0.0220   0.0182   0.0116   0.0138   0.0015   0.0123   0.0002 </r>
        <r>  13.2991   0.0147   0.0084   0.0082   0.0068   0.0038   0.0047   0.0006   0.0039   0.0002 </r>
        <r>  13.4023   0.0299   0.0253   0.0176   0.0256   0.0083   0.0080   0.0059   0.0059   0.0018 </r>
        <r>  13.5056   0.0615   0.0675   0.0330   0.0785   0.0203   0.0126   0.0239   0.0096   0.0063 </r>
        <r>  13.6088   0.0986   0.0802   0.0501   0.0734   0.0209   0.0134   0.0183   0.0103   0.0080 </r>
        <r>  13.7121   0.0899   0.0507   0.0515   0.0816   0.0239   0.0086   0.0083   0.0118   0.0053 </r>
        <r>  13.8153   0.0432   0.0174   0.0321   0.1459   0.0416   0.0031   0.0106   0.0229   0.0077 </r>
        <r>  13.9186   0.0249   0.0110   0.0176   0.1240   0.0383   0.0006   0.0043   0.0238   0.0100 </r>
        <r>  14.0218   0.0074   0.0057   0.0050   0.0373   0.0120   0.0001   0.0025   0.0072   0.0040 </r>
        <r>  14.1251   0.0019   0.0295   0.0045   0.0100   0.0030   0.0012   0.0277   0.0009   0.0082 </r>
        <r>  14.2283   0.0112   0.0766   0.0236   0.0351   0.0076   0.0051   0.0762   0.0033   0.0166 </r>
        <r>  14.3315   0.0282   0.0688   0.0532   0.0780   0.0122   0.0096   0.0768   0.0089   0.0066 </r>
        <r>  14.4348   0.0292   0.0681   0.0536   0.1197   0.0201   0.0104   0.0743   0.0120   0.0105 </r>
        <r>  14.5380   0.0340   0.0702   0.0504   0.1216   0.0225   0.0107   0.0525   0.0126   0.0264 </r>
        <r>  14.6413   0.0353   0.0283   0.0392   0.0570   0.0143   0.0114   0.0128   0.0118   0.0144 </r>
        <r>  14.7445   0.0295   0.0273   0.0335   0.0302   0.0089   0.0111   0.0135   0.0109   0.0024 </r>
        <r>  14.8478   0.0423   0.0940   0.0408   0.0864   0.0139   0.0139   0.0246   0.0135   0.0051 </r>
        <r>  14.9510   0.0738   0.1332   0.0749   0.1204   0.0208   0.0251   0.0248   0.0219   0.0060 </r>
        <r>  15.0543   0.0773   0.0815   0.1827   0.0767   0.0122   0.0536   0.0225   0.0418   0.0025 </r>
        <r>  15.1575   0.0535   0.0502   0.1298   0.0363   0.0066   0.0403   0.0100   0.0281   0.0023 </r>
        <r>  15.2608   0.0402   0.0600   0.0460   0.0253   0.0069   0.0179   0.0243   0.0090   0.0045 </r>
        <r>  15.3640   0.0227   0.0750   0.0630   0.0339   0.0048   0.0193   0.0657   0.0091   0.0099 </r>
        <r>  15.4673   0.0188   0.1126   0.0598   0.0815   0.0098   0.0186   0.0681   0.0112   0.0231 </r>
        <r>  15.5705   0.0056   0.1182   0.0138   0.0902   0.0115   0.0088   0.0480   0.0052   0.0274 </r>
        <r>  15.6738   0.0006   0.0261   0.0011   0.0200   0.0025   0.0015   0.0097   0.0009   0.0061 </r>
        <r>  15.7770   0.0001   0.0015   0.0007   0.0007   0.0001   0.0002   0.0009   0.0000   0.0003 </r>
        <r>  15.8802   0.0011   0.0126   0.0134   0.0018   0.0003   0.0033   0.0128   0.0002   0.0011 </r>
        <r>  15.9835   0.0059   0.0493   0.0462   0.0351   0.0039   0.0105   0.0422   0.0044   0.0056 </r>
        <r>  16.0867   0.0156   0.0530   0.0408   0.1265   0.0156   0.0058   0.0283   0.0172   0.0114 </r>
        <r>  16.1900   0.0297   0.0296   0.0355   0.1516   0.0283   0.0018   0.0077   0.0260   0.0189 </r>
        <r>  16.2932   0.0386   0.0492   0.0406   0.1693   0.0456   0.0088   0.0111   0.0392   0.0229 </r>
        <r>  16.3965   0.0403   0.1164   0.0579   0.2018   0.0566   0.0215   0.0443   0.0452   0.0310 </r>
        <r>  16.4997   0.0273   0.0990   0.0507   0.1026   0.0233   0.0194   0.0479   0.0189   0.0189 </r>
        <r>  16.6030   0.0296   0.0847   0.0316   0.0692   0.0082   0.0183   0.0189   0.0118   0.0081 </r>
        <r>  16.7062   0.0415   0.0940   0.0532   0.0933   0.0117   0.0218   0.0310   0.0172   0.0095 </r>
        <r>  16.8095   0.0357   0.0779   0.0729   0.1187   0.0153   0.0129   0.0541   0.0170   0.0178 </r>
        <r>  16.9127   0.0271   0.0734   0.0561   0.0679   0.0084   0.0151   0.0546   0.0105   0.0098 </r>
        <r>  17.0160   0.0174   0.0495   0.0295   0.0248   0.0026   0.0122   0.0323   0.0054   0.0021 </r>
        <r>  17.1192   0.0058   0.0135   0.0138   0.0116   0.0022   0.0044   0.0094   0.0030   0.0052 </r>
        <r>  17.2225   0.0151   0.0315   0.0546   0.0413   0.0094   0.0142   0.0283   0.0118   0.0271 </r>
        <r>  17.3257   0.0173   0.0302   0.0537   0.0506   0.0099   0.0136   0.0272   0.0128   0.0295 </r>
        <r>  17.4289   0.0092   0.0111   0.0125   0.0376   0.0048   0.0028   0.0077   0.0058   0.0156 </r>
        <r>  17.5322   0.0045   0.0300   0.0079   0.0609   0.0070   0.0058   0.0038   0.0129   0.0076 </r>
        <r>  17.6354   0.0091   0.0769   0.0584   0.1266   0.0183   0.0290   0.0273   0.0396   0.0107 </r>
        <r>  17.7387   0.0140   0.0776   0.1270   0.0711   0.0126   0.0478   0.0700   0.0377   0.0096 </r>
        <r>  17.8419   0.0194   0.0467   0.1197   0.0251   0.0052   0.0313   0.0751   0.0154   0.0045 </r>
        <r>  17.9452   0.0267   0.0404   0.1084   0.0293   0.0084   0.0233   0.0608   0.0123   0.0034 </r>
        <r>  18.0484   0.0272   0.0465   0.0505   0.0271   0.0159   0.0125   0.0197   0.0103   0.0025 </r>
        <r>  18.1517   0.0119   0.0549   0.0369   0.0237   0.0081   0.0071   0.0114   0.0073   0.0040 </r>
        <r>  18.2549   0.0035   0.0512   0.0148   0.0573   0.0070   0.0079   0.0072   0.0114   0.0102 </r>
        <r>  18.3582   0.0129   0.0717   0.0111   0.1559   0.0282   0.0070   0.0127   0.0224   0.0391 </r>
        <r>  18.4614   0.0223   0.1027   0.0173   0.2121   0.0353   0.0098   0.0170   0.0277   0.0542 </r>
        <r>  18.5647   0.0141   0.0600   0.0097   0.1173   0.0184   0.0063   0.0128   0.0128   0.0333 </r>
        <r>  18.6679   0.0023   0.0109   0.0013   0.0227   0.0039   0.0010   0.0034   0.0018   0.0070 </r>
        <r>  18.7712   0.0019   0.0155   0.0005   0.0358   0.0076   0.0012   0.0072   0.0019   0.0100 </r>
        <r>  18.8744   0.0028   0.0275   0.0094   0.0521   0.0149   0.0019   0.0095   0.0081   0.0123 </r>
        <r>  18.9776   0.0057   0.0426   0.0394   0.0653   0.0299   0.0037   0.0090   0.0303   0.0046 </r>
        <r>  19.0809   0.0151   0.0544   0.0708   0.0847   0.0334   0.0071   0.0276   0.0380   0.0036 </r>
        <r>  19.1841   0.0125   0.0364   0.0767   0.0289   0.0118   0.0099   0.0344   0.0155   0.0028 </r>
        <r>  19.2874   0.0131   0.0165   0.0708   0.0101   0.0032   0.0122   0.0500   0.0055   0.0063 </r>
        <r>  19.3906   0.0225   0.0177   0.0652   0.0321   0.0056   0.0130   0.0585   0.0074   0.0189 </r>
        <r>  19.4939   0.0183   0.0200   0.0858   0.0260   0.0086   0.0231   0.0477   0.0179   0.0118 </r>
        <r>  19.5971   0.0189   0.0177   0.1309   0.0141   0.0074   0.0258   0.0901   0.0183   0.0032 </r>
        <r>  19.7004   0.0152   0.0145   0.0708   0.0142   0.0059   0.0132   0.0599   0.0086   0.0017 </r>
        <r>  19.8036   0.0083   0.0121   0.0181   0.0170   0.0048   0.0064   0.0100   0.0061   0.0016 </r>
        <r>  19.9069   0.0081   0.0187   0.0266   0.0640   0.0046   0.0077   0.0042   0.0101   0.0135 </r>
        <r>  20.0101   0.0117   0.0347   0.0360   0.1135   0.0092   0.0166   0.0111   0.0167   0.0288 </r>
        <r>  20.1134   0.0093   0.0414   0.0357   0.0900   0.0114   0.0277   0.0150   0.0223   0.0286 </r>
        <r>  20.2166   0.0090   0.0350   0.0348   0.0720   0.0120   0.0277   0.0149   0.0211   0.0253 </r>
        <r>  20.3199   0.0051   0.0134   0.0145   0.0290   0.0095   0.0157   0.0038   0.0106   0.0067 </r>
[...]
       </set>
       <set comment="band 6">
        <r>  0.2460  0.0092  0.1573  0.0009  0.0000  0.2379  0.0901  0.0116  0.0026 </r>
       </set>
       <set comment="band 7">
        <r>  0.3147  0.0764  0.1393  0.0539  0.0278  0.0014  0.0001  0.0031  0.0296 </r>
       </set>
       <set comment="band 8">
        <r>  0.0518  0.0014  0.0625  0.3408  0.0897  0.0072  0.0382  0.0305  0.0034 </r>
       </set>
       <set comment="band 9">
        <r>  0.0036  0.2084  0.0537  0.0461  0.0093  0.0292  0.1879  0.0013  0.0290 </r>
       </set>
      </set>
      <set comment="kpoint 46">
       <set comment="band 1">
        <r>  0.0058  0.0262  0.0004  0.0003  0.0364  0.0002  0.6516  0.0001  0.0902 </r>
       </set>
       <set comment="band 2">
        <r>  0.0028  0.0031  0.0003  0.0375  0.7577  0.0071  0.0222  0.0033  0.0116 </r>
       </set>
       <set comment="band 3">
        <r>  0.0061  0.0002  0.0540  0.0005  0.0094  0.7681  0.0016  0.0050  0.0069 </r>
       </set>
       <set comment="band 4">
        <r>  0.0231  0.0011  0.0019  0.0007  0.0020  0.0096  0.1107  0.0028  0.7712 </r>
       </set>
       <set comment="band 5">
        <r>  0.0003  0.0000  0.0005  0.0005  0.0048  0.0107  0.0002  0.9605  0.0014 </r>
       </set>
       <set comment="band 6">
        <r>  0.5302  0.0000  0.0700  0.0072  0.0129  0.0656  0.0353  0.0043  0.0242 </r>
       </set>
       <set comment="band 7">
        <r>  0.0813  0.0270  0.2837  0.0672  0.0361  0.1073  0.0066  0.0009  0.0263 </r>
       </set>
       <set comment="band 8">
        <r>  0.0656  0.0114  0.0620  0.3196  0.1112  0.0193  0.0398  0.0070  0.0022 </r>
       </set>
       <set comment="band 9">
        <r>  0.0003  0.2319  0.0143  0.0459  0.0151  0.0070  0.2059  0.0001  0.0686 </r>
       </set>
      </set>
      <set comment="kpoint 47">
       <set comment="band 1">
        <r>  0.0129  0.0235  0.0021  0.0048  0.0002  0.1002  0.3952  0.0033  0.2724 </r>
       </set>
       <set comment="band 2">
        <r>  0.0105  0.0040  0.0291  0.0038  0.1113  0.5489  0.0936  0.0266  0.0156 </r>
       </set>
       <set comment="band 3">
        <r>  0.0356  0.0028  0.0071  0.0412  0.5799  0.1352  0.0067  0.0000  0.0285 </r>
       </set>
       <set comment="band 4">
        <r>  0.0047  0.0015  0.0006  0.0110  0.0349  0.0003  0.3156  0.0294  0.5274 </r>
       </set>
       <set comment="band 5">
        <r>  0.0012  0.0000  0.0031  0.0000  0.0164  0.0407  0.0089  0.8848  0.0139 </r>
       </set>
       <set comment="band 6">
        <r>  0.3490  0.0137  0.0005  0.1164  0.1980  0.0007  0.0189  0.0072  0.0465 </r>
       </set>
       <set comment="band 7">
        <r>  0.1976  0.0674  0.1214  0.1098  0.0080  0.0647  0.0708  0.0101  0.0002 </r>
       </set>
       <set comment="band 8">
        <r>  0.0896  0.0113  0.3005  0.0773  0.0083  0.0972  0.0184  0.0298  0.0107 </r>
       </set>
       <set comment="band 9">
        <r>  0.0110  0.1674  0.0073  0.1154  0.0408  0.0031  0.1331  0.0000  0.1018 </r>
       </set>
      </set>
      <set comment="kpoint 48">
       <set comment="band 1">
        <r>  0.0383  0.0003  0.0007  0.0003  0.2751  0.0004  0.4994  0.0004  0.0000 </r>
       </set>
       <set comment="band 2">
        <r>  0.0029  0.0136  0.0001  0.0136  0.5526  0.0004  0.2449  0.0004  0.0000 </r>
       </set>
       <set comment="band 3">
        <r>  0.0057  0.0000  0.0741  0.0000  0.0029  0.3925  0.0022  0.3925  0.0000 </r>
       </set>
       <set comment="band 4">
        <r>  0.0000  0.0028  0.0000  0.0028  0.0000  0.0322  0.0000  0.0322  0.8826 </r>
       </set>
       <set comment="band 5">
        <r>  0.0000  0.0000  0.0000  0.0000  0.0000  0.4549  0.0000  0.4549  0.0666 </r>
       </set>
       <set comment="band 6">
        <r>  0.1485  0.0003  0.3010  0.0003  0.0010  0.0948  0.0410  0.0948  0.0000 </r>
       </set>
       <set comment="band 7">
        <r>  0.4653  0.0294  0.1015  0.0294  0.0301  0.0059  0.0312  0.0059  0.0000 </r>
       </set>
       <set comment="band 8">
        <r>  0.0310  0.1573  0.0211  0.1573  0.0460  0.0055  0.1960  0.0055  0.0000 </r>
       </set>
       <set comment="band 9">
        <r>  0.0000  0.2374  0.0000  0.2374  0.0000  0.0013  0.0000  0.0013  0.0494 </r>
       </set>
      </set>
      <set comment="kpoint 49">
       <set comment="band 1">
        <r>  0.0276  0.0126  0.0007  0.0009  0.1167  0.0002  0.6358  0.0002  0.0122 </r>
       </set>
       <set comment="band 2">
        <r>  0.0006  0.0056  0.0000  0.0207  0.7084  0.0002  0.1019  0.0011  0.0033 </r>
       </set>
       <set comment="band 3">
        <r>  0.0074  0.0001  0.0649  0.0000  0.0010  0.7524  0.0004  0.0140  0.0231 </r>
       </set>
       <set comment="band 4">
        <r>  0.0077  0.0042  0.0033  0.0004  0.0001  0.0176  0.0186  0.0073  0.8807 </r>
       </set>
       <set comment="band 5">
        <r>  0.0002  0.0000  0.0004  0.0005  0.0019  0.0252  0.0000  0.9464  0.0043 </r>
       </set>
       <set comment="band 6">
        <r>  0.2241  0.0008  0.2558  0.0000  0.0008  0.1578  0.0479  0.0093  0.0013 </r>
       </set>
       <set comment="band 7">
        <r>  0.4236  0.0166  0.1544  0.0145  0.0118  0.0318  0.0269  0.0007  0.0198 </r>
       </set>
       <set comment="band 8">
        <r>  0.0147  0.0616  0.0128  0.3204  0.0916  0.0042  0.0945  0.0044  0.0019 </r>
       </set>
       <set comment="band 9">
        <r>  0.0020  0.2320  0.0035  0.1181  0.0237  0.0033  0.1331  0.0006  0.0485 </r>
       </set>
      </set>
      <set comment="kpoint 50">
       <set comment="band 1">
        <r>  0.0534  0.0001  0.0069  0.0001  0.3258  0.0057  0.4127  0.0057  0.0000 </r>
       </set>
       <set comment="band 2">
        <r>  0.0065  0.0137  0.0013  0.0137  0.4853  0.0031  0.3002  0.0031  0.0000 </r>
       </set>
       <set comment="band 3">
        <r>  0.0441  0.0001  0.0703  0.0001  0.0272  0.3396  0.0265  0.3396  0.0000 </r>
       </set>
       <set comment="band 4">
        <r>  0.0000  0.0033  0.0000  0.0033  0.0000  0.1417  0.0000  0.1417  0.6542 </r>
       </set>
       <set comment="band 5">
        <r>  0.0000  0.0000  0.0000  0.0000  0.0000  0.3407  0.0000  0.3407  0.2975 </r>
       </set>
       <set comment="band 6">
        <r>  0.2032  0.0061  0.1745  0.0061  0.0001  0.1313  0.0991  0.1313  0.0000 </r>
       </set>
       <set comment="band 7">
        <r>  0.3082  0.0830  0.1088  0.0830  0.0492  0.0014  0.0004  0.0014  0.0000 </r>
       </set>
       <set comment="band 8">
        <r>  0.0729  0.0907  0.1299  0.0907  0.0241  0.0213  0.1895  0.0213  0.0000 </r>
       </set>
       <set comment="band 9">
        <r>  0.0000  0.2351  0.0000  0.2352  0.0000  0.0110  0.0000  0.0110  0.0419 </r>
       </set>
      </set>
      <set comment="kpoint 51">
       <set comment="band 1">
        <r>  0.3338  0.0107  0.0107  0.0107  0.1035  0.1035  0.0000  0.1035  0.0000 </r>
       </set>
       <set comment="band 2">
        <r>  0.0000  0.0001  0.0001  0.0004  0.1099  0.3308  0.1377  0.0595  0.2803 </r>
       </set>
       <set comment="band 3">
        <r>  0.0000  0.0003  0.0003  0.0000  0.2236  0.0026  0.2803  0.2740  0.1377 </r>
       </set>
       <set comment="band 4">
        <r>  0.1110  0.0394  0.0394  0.0394  0.1722  0.1722  0.0000  0.1722  0.0000 </r>
       </set>
       <set comment="band 5">
        <r>  0.0000  0.0006  0.0009  0.0000  0.2570  0.0092  0.4591  0.1701  0.0606 </r>
       </set>
       <set comment="band 6">
        <r>  0.0000  0.0004  0.0001  0.0010  0.0339  0.2817  0.0606  0.1208  0.4591 </r>
       </set>
       <set comment="band 7">
        <r>  0.1883  0.0883  0.0883  0.0883  0.0635  0.0635  0.0000  0.0635  0.0000 </r>
       </set>
       <set comment="band 8">
        <r>  0.0006  0.0054  0.0053  0.0053  0.0143  0.0143  0.0000  0.0142  0.0000 </r>
       </set>
       <set comment="band 9">
        <r>  0.0000  0.0019  0.2396  0.2408  0.0548  0.0550  0.0009  0.0004  0.0003 </r>
       </set>
      </set>
      <set comment="kpoint 52">
       <set comment="band 1">
        <r>  0.2363  0.0162  0.0162  0.0003  0.1297  0.1977  0.0004  0.1297  0.0011 </r>
       </set>
       <set comment="band 2">
        <r>  0.0039  0.0000  0.0000  0.0061  0.1194  0.2807  0.0928  0.1194  0.2784 </r>
       </set>
       <set comment="band 3">
        <r>  0.0000  0.0004  0.0004  0.0000  0.1776  0.0000  0.4220  0.1776  0.1407 </r>
       </set>
       <set comment="band 4">
        <r>  0.0713  0.0376  0.0376  0.0318  0.1629  0.0004  0.0659  0.1629  0.1976 </r>
       </set>
       <set comment="band 5">
        <r>  0.0000  0.0008  0.0008  0.0000  0.2940  0.0000  0.2716  0.2940  0.0905 </r>
       </set>
       <set comment="band 6">
        <r>  0.0940  0.0245  0.0245  0.0068  0.0005  0.4479  0.0730  0.0005  0.2189 </r>
       </set>
       <set comment="band 7">
        <r>  0.2229  0.0786  0.0786  0.0970  0.0649  0.0423  0.0040  0.0649  0.0119 </r>
       </set>
       <set comment="band 8">
        <r>  0.0277  0.0349  0.0349  0.2441  0.0722  0.0100  0.0085  0.0722  0.0256 </r>
       </set>
       <set comment="band 9">
        <r>  0.0141  0.0526  0.0522  0.0388  0.0002  0.0018  0.0039  0.0002  0.0119 </r>
       </set>
      </set>
      <set comment="kpoint 53">
       <set comment="band 1">
        <r>  0.1149  0.0128  0.0128  0.0035  0.0411  0.5298  0.0118  0.0411  0.0353 </r>
       </set>
       <set comment="band 2">
        <r>  0.0048  0.0096  0.0096  0.0172  0.1755  0.0263  0.1068  0.1755  0.3205 </r>
       </set>
       <set comment="band 3">
        <r>  0.0223  0.0269  0.0269  0.0286  0.1833  0.0527  0.0700  0.1833  0.2101 </r>
       </set>
       <set comment="band 4">
        <r>  0.0000  0.0026  0.0026  0.0000  0.0427  0.0000  0.6246  0.0427  0.2082 </r>
       </set>
       <set comment="band 5">
        <r>  0.0000  0.0002  0.0002  0.0000  0.4337  0.0000  0.0644  0.4337  0.0215 </r>
       </set>
       <set comment="band 6">
        <r>  0.2614  0.0440  0.0440  0.0022  0.0005  0.3418  0.0273  0.0005  0.0819 </r>
       </set>
       <set comment="band 7">
        <r>  0.2138  0.0788  0.0788  0.1076  0.0472  0.0039  0.0212  0.0472  0.0635 </r>
       </set>
       <set comment="band 8">
        <r>  0.0635  0.0359  0.0359  0.2925  0.0862  0.0004  0.0111  0.0862  0.0334 </r>
       </set>
       <set comment="band 9">
        <r>  0.0003  0.2078  0.2429  0.0000  0.0000  0.0014  0.1300  0.0000  0.0305 </r>
       </set>
      </set>
      <set comment="kpoint 54">
       <set comment="band 1">
        <r>  0.0436  0.0008  0.0008  0.0011  0.0042  0.5003  0.0706  0.0042  0.2118 </r>
       </set>
       <set comment="band 2">
        <r>  0.0028  0.0310  0.0310  0.0003  0.0096  0.2315  0.1224  0.0096  0.3672 </r>
       </set>
       <set comment="band 3">
        <r>  0.0023  0.0010  0.0010  0.0669  0.3739  0.0316  0.0003  0.3739  0.0008 </r>
       </set>
       <set comment="band 4">
        <r>  0.0000  0.0036  0.0036  0.0000  0.0327  0.0000  0.6454  0.0327  0.2151 </r>
       </set>
       <set comment="band 5">
        <r>  0.0000  0.0001  0.0001  0.0000  0.4497  0.0000  0.0500  0.4497  0.0167 </r>
       </set>
       <set comment="band 6">
        <r>  0.4641  0.0466  0.0466  0.0001  0.0052  0.1537  0.0008  0.0052  0.0025 </r>
       </set>
       <set comment="band 7">
        <r>  0.0492  0.0425  0.0425  0.2717  0.0884  0.0077  0.0187  0.0884  0.0560 </r>
       </set>
       <set comment="band 8">
        <r>  0.1280  0.0796  0.0796  0.1407  0.0325  0.0090  0.0404  0.0325  0.1211 </r>
       </set>
       <set comment="band 9">
        <r>  0.0000  0.2329  0.2331  0.0000  0.0006  0.0000  0.0801  0.0006  0.0266 </r>
       </set>
      </set>
      <set comment="kpoint 55">
       <set comment="band 1">
        <r>  0.1814  0.0000  0.0190  0.0000  0.2458  0.1499  0.0154  0.1499  0.0000 </r>
       </set>
       <set comment="band 2">
        <r>  0.0004  0.0024  0.0001  0.0024  0.0911  0.0936  0.6084  0.0936  0.0000 </r>
       </set>
       <set comment="band 3">
        <r>  0.0000  0.0016  0.0000  0.0016  0.0000  0.2056  0.0000  0.2056  0.5037 </r>
       </set>
       <set comment="band 4">
        <r>  0.0523  0.0296  0.0338  0.0296  0.4980  0.0206  0.1156  0.0206  0.0000 </r>
       </set>
       <set comment="band 5">
        <r>  0.0000  0.0002  0.0000  0.0002  0.0000  0.2689  0.0000  0.2689  0.4375 </r>
       </set>
       <set comment="band 6">
        <r>  0.1243  0.0312  0.0714  0.0312  0.0178  0.1737  0.1710  0.1737  0.0000 </r>
       </set>
       <set comment="band 7">
        <r>  0.2699  0.0819  0.0551  0.0819  0.0925  0.0523  0.0067  0.0523  0.0000 </r>
       </set>
       <set comment="band 8">
        <r>  0.0098  0.0023  0.1108  0.0023  0.0082  0.0053  0.1036  0.0054  0.0000 </r>
       </set>
       <set comment="band 9">
        <r>  0.0000  0.2329  0.0000  0.2337  0.0000  0.0270  0.0000  0.0271  0.0339 </r>
       </set>
      </set>
      <set comment="kpoint 56">
       <set comment="band 1">
        <r>  0.1068  0.0013  0.0189  0.0095  0.3201  0.2215  0.0245  0.0926  0.0017 </r>
       </set>
       <set comment="band 2">
        <r>  0.0004  0.0126  0.0000  0.0004  0.0331  0.1552  0.5200  0.0025  0.1363 </r>
       </set>
       <set comment="band 3">
        <r>  0.0192  0.0195  0.0252  0.0292  0.3475  0.2311  0.1350  0.0170  0.0038 </r>
       </set>
       <set comment="band 4">
        <r>  0.0016  0.0028  0.0127  0.0003  0.0618  0.0005  0.0782  0.2377  0.5184 </r>
       </set>
       <set comment="band 5">
        <r>  0.0009  0.0003  0.0016  0.0013  0.0671  0.0865  0.0447  0.5337  0.2293 </r>
       </set>
       <set comment="band 6">
        <r>  0.2260  0.0354  0.0945  0.0193  0.0001  0.2530  0.0854  0.0315  0.0203 </r>
       </set>
       <set comment="band 7">
        <r>  0.2541  0.0667  0.0516  0.1135  0.1041  0.0075  0.0173  0.0438  0.0259 </r>
       </set>
       <set comment="band 8">
        <r>  0.0747  0.0288  0.0899  0.2758  0.0612  0.0013  0.0000  0.0450  0.0467 </r>
       </set>
       <set comment="band 9">
        <r>  0.0154  0.0968  0.1606  0.0041  0.0045  0.0439  0.1652  0.0010  0.0095 </r>
       </set>
      </set>
      <set comment="kpoint 57">
       <set comment="band 1">
        <r>  0.0217  0.0073  0.0043  0.0011  0.0035  0.3341  0.2239  0.0022  0.2374 </r>
       </set>
       <set comment="band 2">
        <r>  0.0134  0.0240  0.0312  0.0018  0.0449  0.3684  0.2332  0.0086  0.0877 </r>
       </set>
       <set comment="band 3">
        <r>  0.0011  0.0019  0.0034  0.0528  0.6794  0.0566  0.0012  0.0493  0.0057 </r>
       </set>
       <set comment="band 4">
        <r>  0.0099  0.0006  0.0049  0.0013  0.0004  0.0102  0.3677  0.0251  0.5064 </r>
       </set>
       <set comment="band 5">
        <r>  0.0013  0.0000  0.0000  0.0022  0.0914  0.0061  0.0083  0.8495  0.0109 </r>
       </set>
       <set comment="band 6">
        <r>  0.4805  0.0172  0.0690  0.0004  0.0065  0.1302  0.0230  0.0077  0.0041 </r>
       </set>
       <set comment="band 7">
        <r>  0.0447  0.0471  0.0696  0.2516  0.1179  0.0172  0.0293  0.0268  0.0458 </r>
       </set>
       <set comment="band 8">
        <r>  0.1257  0.0463  0.1170  0.1685  0.0524  0.0189  0.0181  0.0206  0.0901 </r>
       </set>
       <set comment="band 9">
        <r>  0.0123  0.1594  0.1759  0.0010  0.0013  0.0439  0.1685  0.0004  0.0128 </r>
       </set>
      </set>
      <set comment="kpoint 58">
       <set comment="band 1">
        <r>  0.0697  0.0017  0.0089  0.0017  0.4974  0.0461  0.1499  0.0461  0.0000 </r>
       </set>
       <set comment="band 2">
        <r>  0.0017  0.0212  0.0010  0.0212  0.0576  0.0557  0.6100  0.0557  0.0000 </r>
       </set>
       <set comment="band 3">
        <r>  0.0160  0.0081  0.0535  0.0081  0.2316  0.2570  0.0120  0.2570  0.0000 </r>
       </set>
       <set comment="band 4">
        <r>  0.0000  0.0030  0.0000  0.0030  0.0000  0.1269  0.0000  0.1269  0.6675 </r>
       </set>
       <set comment="band 5">
        <r>  0.0000  0.0001  0.0000  0.0001  0.0000  0.3540  0.0000  0.3540  0.2644 </r>
       </set>
       <set comment="band 6">
        <r>  0.3205  0.0104  0.1142  0.0104  0.0072  0.1180  0.0705  0.1180  0.0000 </r>
       </set>
       <set comment="band 7">
        <r>  0.1885  0.0996  0.0764  0.0996  0.1370  0.0001  0.0444  0.0001  0.0000 </r>
       </set>
       <set comment="band 8">
        <r>  0.0896  0.0547  0.2188  0.0547  0.0059  0.0369  0.1350  0.0369  0.0000 </r>
       </set>
       <set comment="band 9">
        <r>  0.0000  0.2331  0.0000  0.2329  0.0000  0.0052  0.0000  0.0052  0.0892 </r>
       </set>
      </set>
      <set comment="kpoint 59">
       <set comment="band 1">
        <r>  0.1850  0.0009  0.0009  0.0009  0.1935  0.1935  0.0000  0.1935  0.0000 </r>
       </set>
       <set comment="band 2">
        <r>  0.0000  0.0000  0.0000  0.0000  0.0662  0.2564  0.1363  0.0620  0.3915 </r>
       </set>
       <set comment="band 3">
        <r>  0.0000  0.0000  0.0000  0.0000  0.1902  0.0000  0.3915  0.1944  0.1363 </r>
       </set>
       <set comment="band 4">
        <r>  0.0000  0.0002  0.0002  0.0000  0.3158  0.0044  0.3392  0.2465  0.0666 </r>
       </set>
       <set comment="band 5">
        <r>  0.0000  0.0001  0.0000  0.0002  0.0620  0.3734  0.0666  0.1313  0.3392 </r>
       </set>
       <set comment="band 6">
        <r>  0.1024  0.1101  0.1101  0.1101  0.0415  0.0415  0.0000  0.0415  0.0000 </r>
       </set>
       <set comment="band 7">
        <r>  0.3570  0.0410  0.0410  0.0410  0.0956  0.0956  0.0000  0.0956  0.0000 </r>
       </set>
       <set comment="band 8">
        <r>  0.0000  0.0064  0.0064  0.0064  0.0014  0.0014  0.0000  0.0014  0.0000 </r>
       </set>
       <set comment="band 9">
        <r>  0.0000  0.0804  0.3216  0.0834  0.0089  0.0023  0.0001  0.0022  0.0000 </r>
       </set>
      </set>
      <set comment="kpoint 60">
       <set comment="band 1">
        <r>  0.1477  0.0030  0.0030  0.0061  0.1820  0.2585  0.0004  0.1820  0.0011 </r>
       </set>
       <set comment="band 2">
        <r>  0.0001  0.0020  0.0020  0.0007  0.0693  0.1788  0.1423  0.0693  0.4270 </r>
       </set>
       <set comment="band 3">
        <r>  0.0000  0.0009  0.0009  0.0000  0.1700  0.0000  0.4297  0.1700  0.1432 </r>
       </set>
       <set comment="band 4">
        <r>  0.0010  0.0333  0.0333  0.0332  0.1085  0.2846  0.0575  0.1085  0.1724 </r>
       </set>
       <set comment="band 5">
        <r>  0.0000  0.0002  0.0002  0.0000  0.3074  0.0000  0.2672  0.3074  0.0891 </r>
       </set>
       <set comment="band 6">
        <r>  0.0549  0.1058  0.1058  0.0941  0.0011  0.1665  0.0290  0.0011  0.0869 </r>
       </set>
       <set comment="band 7">
        <r>  0.4283  0.0098  0.0098  0.0365  0.1215  0.0703  0.0028  0.1215  0.0083 </r>
       </set>
       <set comment="band 8">
        <r>  0.0273  0.0282  0.0283  0.2265  0.0343  0.0011  0.0181  0.0343  0.0544 </r>
       </set>
       <set comment="band 9">
        <r>  0.0203  0.0502  0.0549  0.0652  0.0022  0.0353  0.0014  0.0023  0.0034 </r>
       </set>
      </set>
     </set>
    </set>
   </array>
  </projected>
 </calculation>
 <structure name="finalpos"">
  <crystal>
   <varray name="basis"">
    <v>       0.00000000      2.10000000      2.10000000</v>
    <v>       2.10000000      0.00000000      2.10000000</v>
    <v>       2.10000000      2.10000000      0.00000000</v>
   </varray>
   <i name="volume""     18.52200000</i>
   <varray name="rec_basis"">
    <v>      -0.23809524      0.23809524      0.23809524</v>
    <v>       0.23809524     -0.23809524      0.23809524</v>
    <v>       0.23809524      0.23809524     -0.23809524</v>
   </varray>
  </crystal>
  <varray name="positions"">
   <v>       0.00000000      0.00000000      0.00000000</v>
  </varray>
 </structure>
</modeling>
