----- GAMESS execution script 'rungms' -----
This job is running on host dftfe.crc.nd.edu
under operating system Linux at Thu Feb 26 00:15:55 EST 2015
Available scratch disk space (Kbyte units) at beginning of the job is
Filesystem     1K-blocks     Used Available Use% Mounted on
/dev/sda2      147771864 22812780 117452652  17% /
GAMESS temporary binary files will be written to /tmp
GAMESS supplementary output files will be written to /tmp
Copying input file gamess.inp to your run's scratch directory...

 Distributed Data Interface kickoff program.
 Initiating 1 compute processes on 1 nodes to run the following command:
 /opt/crc/gamess/2012R1/gamess/gamess.00.x gamess 

          ******************************************************
          *         GAMESS VERSION =  1 MAY 2012 (R1)          *
          *             FROM IOWA STATE UNIVERSITY             *
          * M.W.SCHMIDT, K.K.BALDRIDGE, J.A.BOATZ, S.T.ELBERT, *
          *   M.S.GORDON, J.H.JENSEN, S.KOSEKI, N.MATSUNAGA,   *
          *          K.A.NGUYEN, S.J.SU, T.L.WINDUS,           *
          *       TOGETHER WITH M.DUPUIS, J.A.MONTGOMERY       *
          *         J.COMPUT.CHEM.  14, 1347-1363(1993)        *
          **************** 64 BIT LINUX VERSION ****************

  SINCE 1993, STUDENTS AND POSTDOCS WORKING AT IOWA STATE UNIVERSITY
  AND ALSO IN THEIR VARIOUS JOBS AFTER LEAVING ISU HAVE MADE IMPORTANT
  CONTRIBUTIONS TO THE CODE:
     IVANA ADAMOVIC, CHRISTINE AIKENS, YURI ALEXEEV, POOJA ARORA,
     ANDREY ASADCHEV, ROB BELL, PRADIPTA BANDYOPADHYAY, JONATHAN BENTZ,
     BRETT BODE, GALINA CHABAN, WEI CHEN, CHEOL HO CHOI, PAUL DAY,
     ALBERT DEFUSCO, TIM DUDLEY, DMITRI FEDOROV, GRAHAM FLETCHER,
     MARK FREITAG, KURT GLAESEMANN, DAN KEMP, GRANT MERRILL,
     NORIYUKI MINEZAWA, JONATHAN MULLIN, TAKESHI NAGATA,
     SEAN NEDD, HEATHER NETZLOFF, BOSILJKA NJEGIC, RYAN OLSON, MIKE PAK,
     JIM SHOEMAKER, LYUDMILA SLIPCHENKO, SAROM SOK, JIE SONG,
     TETSUYA TAKETSUGU, SIMON WEBB, SOOHAENG YOO, FEDERICO ZAHARIEV

  ADDITIONAL CODE HAS BEEN PROVIDED BY COLLABORATORS IN OTHER GROUPS:
     IOWA STATE UNIVERSITY:
          JOE IVANIC, LAIMUTIS BYTAUTAS, KLAUS RUEDENBERG
     UNIVERSITY OF TOKYO: KIMIHIKO HIRAO, TAKAHITO NAKAJIMA,
          TAKAO TSUNEDA, MUNEAKI KAMIYA, SUSUMU YANAGISAWA,
          KIYOSHI YAGI, MAHITO CHIBA, SEIKEN TOKURA, NAOAKI KAWAKAMI
     UNIVERSITY OF AARHUS: FRANK JENSEN
     UNIVERSITY OF IOWA: VISVALDAS KAIRYS, HUI LI
     NATIONAL INST. OF STANDARDS AND TECHNOLOGY: WALT STEVENS, DAVID GARMER
     UNIVERSITY OF PISA: BENEDETTA MENNUCCI, JACOPO TOMASI
     UNIVERSITY OF MEMPHIS: HENRY KURTZ, PRAKASHAN KORAMBATH
     UNIVERSITY OF ALBERTA: TOBY ZENG, MARIUSZ KLOBUKOWSKI
     UNIVERSITY OF NEW ENGLAND: MARK SPACKMAN
     MIE UNIVERSITY: HIROAKI UMEDA
     MICHIGAN STATE UNIVERSITY:
          KAROL KOWALSKI, MARTA WLOCH, JEFFREY GOUR, JESSE LUTZ, PIOTR PIECUCH
     UNIVERSITY OF SILESIA: MONIKA MUSIAL, STANISLAW KUCHARSKI
     FACULTES UNIVERSITAIRES NOTRE-DAME DE LA PAIX:
          OLIVIER QUINET, BENOIT CHAMPAGNE
     UNIVERSITY OF CALIFORNIA - SANTA BARBARA: BERNARD KIRTMAN
     INSTITUTE FOR MOLECULAR SCIENCE:
          KAZUYA ISHIMURA, MICHIO KATOUDA, AND SHIGERU NAGASE
     UNIVERSITY OF NOTRE DAME: DAN CHIPMAN
     KYUSHU UNIVERSITY:
          HARUYUKI NAKANO,
          FENG LONG GU, JACEK KORCHOWIEC, MARCIN MAKOWSKI, AND YURIKO AOKI,
          HIROTOSHI MORI AND EISAKU MIYOSHI
     PENNSYLVANIA STATE UNIVERSITY:
          TZVETELIN IORDANOV, CHET SWALINA, JONATHAN SKONE,
          SHARON HAMMES-SCHIFFER
     WASEDA UNIVERSITY:
          MASATO KOBAYASHI, TOMOKO AKAMA, TSUGUKI TOUMA,
          TAKESHI YOSHIKAWA, YASUHIRO IKABATA, HIROMI NAKAI
     UNIVERSITY OF NEBRASKA:
          PEIFENG SU, DEJUN SI, NANDUN THELLAMUREGE, YALI WANG, HUI LI
     UNIVERSITY OF ZURICH:
          ROBERTO PEVERATI, KIM BALDRIDGE
     N. COPERNICUS UNIVERSITY AND JACKSON STATE UNIVERSITY:
          MARIA BARYSZ

 EXECUTION OF GAMESS BEGUN Thu Feb 26 00:15:55 2015

            ECHO OF THE FIRST FEW INPUT CARDS -
 INPUT CARD> $BASIS GBASIS=PC1 $END                                                         
 INPUT CARD> $CONTRL COORD=ZMT ISPHER=1 RUNTYP=ENERGY DFTTYP=PBE $END                       
 INPUT CARD>                                                                                
 INPUT CARD> $DATA                                                                          
 INPUT CARD>Title                                                                           
 INPUT CARD>Cnv 2                                                                           
 INPUT CARD>                                                                                
 INPUT CARD>S                                                                               
 INPUT CARD>O 1 1.40                                                                        
 INPUT CARD>O 1 1.40 2 150.0                                                                
 INPUT CARD> $END                                                                           
    1000000 WORDS OF MEMORY AVAILABLE

     BASIS OPTIONS
     -------------
     GBASIS=PC1          IGAUSS=       0      POLAR=NONE    
     NDFUNC=       0     NFFUNC=       0     DIFFSP=       F
     NPFUNC=       0      DIFFS=       F     BASNAM=        


     RUN TITLE
     ---------
 Title                                                                           

 THE POINT GROUP OF THE MOLECULE IS CNV     
 THE ORDER OF THE PRINCIPAL AXIS IS     2

 YOUR FULLY SUBSTITUTED Z-MATRIX IS
 S   
 O      1   1.4000000
 O      1   1.4000000  2  150.0000

 THE MOMENTS OF INERTIA ARE (AMU-ANGSTROM**2)
 IXX=     2.099   IYY=    58.500   IZZ=    60.599

 ATOM      ATOMIC                      COORDINATES (BOHR)
           CHARGE         X                   Y                   Z
 S          16.0     0.0000000000        0.0000000000       -0.3424629631
 O           8.0    -2.5554691906        0.0000000000        0.3422729428
 O           8.0     2.5554691906        0.0000000000        0.3422729428

          INTERNUCLEAR DISTANCES (ANGS.)
          ------------------------------

                1 S          2 O          3 O     

   1 S       0.0000000    1.4000000 *  1.4000000 *
   2 O       1.4000000 *  0.0000000    2.7045923 *
   3 O       1.4000000 *  2.7045923 *  0.0000000  

  * ... LESS THAN  3.000


     ATOMIC BASIS SET
     ----------------
 THE CONTRACTED PRIMITIVE FUNCTIONS HAVE BEEN UNNORMALIZED
 THE CONTRACTED BASIS FUNCTIONS ARE NOW NORMALIZED TO UNITY

  SHELL TYPE  PRIMITIVE        EXPONENT          CONTRACTION COEFFICIENT(S)

 S         

      1   S       1         55510.0000000    0.000587229760
      1   S       2          8326.7000000    0.004532413947
      1   S       3          1895.6000000    0.023265261648
      1   S       4           536.7700000    0.089696133027
      1   S       5           174.6700000    0.254098332277
      1   S       6            62.5780000    0.438665087637
      1   S       7            23.5730000    0.314547135094
      1   S       8             5.8908000    0.032727897102

      2   S       9          8326.7000000   -0.000019755715
      2   S      10          1895.6000000   -0.000043822381
      2   S      11           536.7700000   -0.001730264906
      2   S      12           174.6700000   -0.009381263460
      2   S      13            62.5780000   -0.064050766303
      2   S      14            23.5730000   -0.082478179196
      2   S      15             5.8908000    0.478342956889
      2   S      16             2.1852000    0.626896670208

      3   S      17          1895.6000000    0.000016227260
      3   S      18           536.7700000    0.000191135619
      3   S      19           174.6700000    0.001952069674
      3   S      20            62.5780000    0.010578701087
      3   S      21            23.5730000    0.022164934551
      3   S      22             5.8908000   -0.184968323118
      3   S      23             2.1852000   -0.480920750976
      3   S      24             0.4528200    1.243822243872

      4   S      25             0.1620200    1.000000000000

      5   P      26           395.4500000    0.004642761329
      5   P      27            92.8340000    0.036023396489
      5   P      28            29.2660000    0.149058869978
      5   P      29            10.5950000    0.360033266263
      5   P      30             4.0272000    0.455756476221
      5   P      31             1.5484000    0.206167664178

      6   P      32            92.8340000    0.000169901442
      6   P      33            29.2660000   -0.002541839934
      6   P      34            10.5950000   -0.007867614595
      6   P      35             4.0272000   -0.037231009184
      6   P      36             1.5484000    0.161417246830
      6   P      37             0.4613400    0.902230419976

      7   P      38             0.1313100    1.000000000000

      8   D      39             0.5500000    1.000000000000

 O         

     15   S      40          2306.7000000    0.005424388755
     15   S      41           347.1500000    0.040474749465
     15   S      42            78.8900000    0.180219634554
     15   S      43            21.8760000    0.462370311787
     15   S      44             6.6646000    0.454888396263

     16   S      45           347.1500000   -0.000655003786
     16   S      46            78.8900000   -0.005362052952
     16   S      47            21.8760000   -0.074902158894
     16   S      48             6.6646000   -0.181442579655
     16   S      49             1.0669000    1.102006874042

     17   S      50             0.3070000    1.000000000000

     18   P      51            17.0220000    0.068979967443
     18   P      52             3.6838000    0.351985516325
     18   P      53             0.9923400    0.724036547822

     19   P      54             0.2448700    1.000000000000

     20   D      55             1.0000000    1.000000000000

 TOTAL NUMBER OF BASIS SET SHELLS             =   20
 NUMBER OF CARTESIAN GAUSSIAN BASIS FUNCTIONS =   49
 NOTE: THIS RUN WILL RESTRICT THE MO VARIATION SPACE TO SPHERICAL HARMONICS.
 THE NUMBER OF ORBITALS KEPT IN THE VARIATIONAL SPACE WILL BE PRINTED LATER.
 NUMBER OF ELECTRONS                          =   32
 CHARGE OF MOLECULE                           =    0
 SPIN MULTIPLICITY                            =    1
 NUMBER OF OCCUPIED ORBITALS (ALPHA)          =   16
 NUMBER OF OCCUPIED ORBITALS (BETA )          =   16
 TOTAL NUMBER OF ATOMS                        =    3
 THE NUCLEAR REPULSION ENERGY IS      109.2860021777

     LEBEDEV GRID-BASED DFT OPTIONS
     ------------------------------
     DFTTYP=PBE     
     NRAD  =      96     NLEB  =     302
     NRAD0 =      24     NLEB0 =     110
     SWOFF =    5.00E-03 (PURE SCF -> DFT)
     SWITCH=    3.00E-04 (COARSE -> TIGHT GRID)
     THRESH=    0.00E+00 GTHRE=    1.00E+00

 GRIMME'S EMPIRICAL DISPERSION CORRECTION= F

     $CONTRL OPTIONS
     ---------------
 SCFTYP=RHF          RUNTYP=ENERGY       EXETYP=RUN     
 MPLEVL=       0     CITYP =NONE         CCTYP =NONE         VBTYP =NONE    
 DFTTYP=PBE          TDDFT =NONE    
 MULT  =       1     ICHARG=       0     NZVAR =       0     COORD =ZMT     
 PP    =NONE         RELWFN=NONE         LOCAL =NONE         NUMGRD=       F
 ISPHER=       1     NOSYM =       0     MAXIT =      30     UNITS =ANGS    
 PLTORB=       F     MOLPLT=       F     AIMPAC=       F     FRIEND=        
 NPRINT=       7     IREST =       0     GEOM  =INPUT   
 NORMF =       0     NORMP =       0     ITOL  =      20     ICUT  =       9
 INTTYP=BEST         GRDTYP=BEST         QMTTOL= 1.0E-06

     $SYSTEM OPTIONS
     ---------------
  REPLICATED MEMORY=     1000000 WORDS (ON EVERY NODE).
 DISTRIBUTED MEMDDI=           0 MILLION WORDS IN AGGREGATE,
 MEMDDI DISTRIBUTED OVER   1 PROCESSORS IS           0 WORDS/PROCESSOR.
 TOTAL MEMORY REQUESTED ON EACH PROCESSOR=     1000000 WORDS.
 TIMLIM=      525600.00 MINUTES, OR     365.0 DAYS.
 PARALL= F  BALTYP=  DLB     KDIAG=    0  COREFL= F
 MXSEQ2=     300 MXSEQ3=     150

          ----------------
          PROPERTIES INPUT
          ----------------

     MOMENTS            FIELD           POTENTIAL          DENSITY
 IEMOM =       1   IEFLD =       0   IEPOT =       0   IEDEN =       0
 WHERE =COMASS     WHERE =NUCLEI     WHERE =NUCLEI     WHERE =NUCLEI  
 OUTPUT=BOTH       OUTPUT=BOTH       OUTPUT=BOTH       OUTPUT=BOTH    
 IEMINT=       0   IEFINT=       0                     IEDINT=       0
                                                       MORB  =       0
          EXTRAPOLATION IN EFFECT
          DIIS IN EFFECT
 ORBITAL PRINTING OPTION: NPREO=     1    49     2     1

     -------------------------------
     INTEGRAL TRANSFORMATION OPTIONS
     -------------------------------
     NWORD  =            0
     CUTOFF = 1.0E-09     MPTRAN =       0
     DIRTRF =       F     AOINTS =DUP     

          ----------------------
          INTEGRAL INPUT OPTIONS
          ----------------------
 NOPK  =       1 NORDER=       0 SCHWRZ=       F

   --- ENCODED Z MATRIX ---
 COORD  TYPE   I   J   K   L   M   N
    1      1    3   1
    2      1    2   1
    3      2    2   1   3

 THE DETERMINANT OF THE G MATRIX IS 10**(    -4)

 THE DETERMINANT OF THE G MATRIX IS 10**(    -4)
 * * * WARNING * * *
 YOUR B MATRIX HAS A SMALL DETERMINANT.
 THIS SUGGESTS YOU MAY HAVE BADLY CHOSEN COORDINATES.

     ------------------------------------------
     THE POINT GROUP IS CNV, NAXIS= 2, ORDER= 4
     ------------------------------------------

 -- VARIATIONAL SPACE WILL BE RESTRICTED TO PURE SPHERICAL HARMONICS ONLY --
 AFTER EXCLUDING CONTAMINANT COMBINATIONS FROM THE CARTESIAN GAUSSIAN BASIS
 SET, THE NUMBER OF SPHERICAL HARMONICS KEPT IN THE VARIATION SPACE IS   46

     DIMENSIONS OF THE SYMMETRY SUBSPACES ARE
 A1  =   19     A2  =    5     B1  =   14     B2  =    8

 ..... DONE SETTING UP THE RUN .....
 STEP CPU TIME =     0.01 TOTAL CPU TIME =        0.0 (    0.0 MIN)
 TOTAL WALL CLOCK TIME=        0.0 SECONDS, CPU UTILIZATION IS  50.00%

          ********************
          1 ELECTRON INTEGRALS
          ********************
 ...... END OF ONE-ELECTRON INTEGRALS ......
 STEP CPU TIME =     0.00 TOTAL CPU TIME =        0.0 (    0.0 MIN)
 TOTAL WALL CLOCK TIME=        0.0 SECONDS, CPU UTILIZATION IS  50.00%

          -------------
          GUESS OPTIONS
          -------------
          GUESS =HUCKEL            NORB  =       0          NORDER=       0
          MIX   =       F          PRTMO =       F          PUNMO =       F
          TOLZ  = 1.0E-08          TOLE  = 1.0E-05
          SYMDEN=       F          PURIFY=       F

 INITIAL GUESS ORBITALS GENERATED BY HUCKEL   ROUTINE.
 HUCKEL GUESS REQUIRES     21583 WORDS.

 STATISTICS FOR GENERATION OF SYMMETRY ORBITAL -Q- MATRIX
 NUMBER OF CARTESIAN ATOMIC ORBITALS=         49
 NUMBER OF SPHERICAL CONTAMINANTS DROPPED=     3
 NUMBER OF LINEARLY DEPENDENT MOS DROPPED=     0
 TOTAL NUMBER OF MOS IN VARIATION SPACE=      46

 SYMMETRIES FOR INITIAL GUESS ORBITALS FOLLOW.   BOTH SET(S).
    16 ORBITALS ARE OCCUPIED (    7 CORE ORBITALS).
     8=?A1      9=?B1     10=A1      11=B2      12=A1      13=B1      14=A2  
    15=B1      16=A1      17=B2      18=A1      19=B1      20=A1      21=A1  
    22=A1      23=A1      24=A1      25=A1      26=?A1 
 ...... END OF INITIAL ORBITAL SELECTION ......
 STEP CPU TIME =     0.01 TOTAL CPU TIME =        0.0 (    0.0 MIN)
 TOTAL WALL CLOCK TIME=        0.0 SECONDS, CPU UTILIZATION IS  66.67%

                    ----------------------
                    AO INTEGRAL TECHNOLOGY
                    ----------------------
     S,P,L SHELL ROTATED AXIS INTEGRALS, REPROGRAMMED BY
        KAZUYA ISHIMURA (IMS) AND JOSE SIERRA (SYNSTAR).
     S,P,D,L SHELL ROTATED AXIS INTEGRALS PROGRAMMED BY
        KAZUYA ISHIMURA (INSTITUTE FOR MOLECULAR SCIENCE).
     S,P,D,F,G SHELL TO TOTAL QUARTET ANGULAR MOMENTUM SUM 5,
        ERIC PROGRAM BY GRAHAM FLETCHER (ELORET AND NASA ADVANCED
        SUPERCOMPUTING DIVISION, AMES RESEARCH CENTER).
     S,P,D,F,G,L SHELL GENERAL RYS QUADRATURE PROGRAMMED BY
        MICHEL DUPUIS (PACIFIC NORTHWEST NATIONAL LABORATORY).

          --------------------
          2 ELECTRON INTEGRALS
          --------------------

 THE -PK- OPTION IS OFF, THE INTEGRALS ARE NOT IN SUPERMATRIX FORM.
 STORING   15000 INTEGRALS/RECORD ON DISK, USING 12 BYTES/INTEGRAL.
 TWO ELECTRON INTEGRAL EVALUATION REQUIRES   90606 WORDS OF MEMORY.
 II,JST,KST,LST =  1  1  1  1 NREC =         1 INTLOC =    1
 II,JST,KST,LST =  2  1  1  1 NREC =         1 INTLOC =    2
 II,JST,KST,LST =  3  1  1  1 NREC =         1 INTLOC =    7
 II,JST,KST,LST =  4  1  1  1 NREC =         1 INTLOC =   22
 II,JST,KST,LST =  5  1  1  1 NREC =         1 INTLOC =   56
 II,JST,KST,LST =  6  1  1  1 NREC =         1 INTLOC =  125
 II,JST,KST,LST =  7  1  1  1 NREC =         1 INTLOC =  329
 II,JST,KST,LST =  8  1  1  1 NREC =         1 INTLOC =  776
 II,JST,KST,LST =  9  1  1  1 NREC =         1 INTLOC = 2864
 II,JST,KST,LST = 10  1  1  1 NREC =         1 INTLOC = 2864
 II,JST,KST,LST = 11  1  1  1 NREC =         1 INTLOC = 2864
 II,JST,KST,LST = 12  1  1  1 NREC =         1 INTLOC = 2864
 II,JST,KST,LST = 13  1  1  1 NREC =         1 INTLOC = 2864
 II,JST,KST,LST = 14  1  1  1 NREC =         1 INTLOC = 2864
 II,JST,KST,LST = 15  1  1  1 NREC =         1 INTLOC = 2864
 II,JST,KST,LST = 16  1  1  1 NREC =         1 INTLOC = 5118
 II,JST,KST,LST = 17  1  1  1 NREC =         1 INTLOC = 8295
 II,JST,KST,LST = 18  1  1  1 NREC =         1 INTLOC =12727
 II,JST,KST,LST = 19  1  1  1 NREC =         3 INTLOC =  336
 II,JST,KST,LST = 20  1  1  1 NREC =         5 INTLOC = 1425
 TOTAL NUMBER OF NONZERO TWO-ELECTRON INTEGRALS =              175857
         12 INTEGRAL RECORDS WERE STORED ON DISK FILE  8.
  ...... END OF TWO-ELECTRON INTEGRALS .....
 STEP CPU TIME =     0.16 TOTAL CPU TIME =        0.2 (    0.0 MIN)
 TOTAL WALL CLOCK TIME=        0.2 SECONDS, CPU UTILIZATION IS  94.74%

          --------------------------
               R-PBE SCF CALCULATION
          --------------------------

     NUCLEAR ENERGY =       109.2860021777
     MAXIT =   30     NPUNCH=    2
     EXTRAP=T  DAMP=F  SHIFT=F  RSTRCT=F  DIIS=T  DEM=F  SOSCF=F
         DENSITY MATRIX CONVERGENCE THRESHOLD=  1.00E-05
     COARSE -> FINE DFT GRID SWITCH THRESHOLD=  3.00E-04 (SWITCH IN $DFT)
                   HF -> DFT SWITCH THRESHOLD=  5.00E-03 (SWOFF IN $DFT)
     MEMORY REQUIRED FOR RHF ITERS=    183108 WORDS.

 DFT CODE IS SWITCHING FROM THE FINE GRID NRAD= 96,  NLEB=  302
                      TO THE COARSE GRID NRAD0= 24, NLEB0=  110

     EXCHANGE FUNCTIONAL   =PBE       
     CORRELATION FUNCTIONAL=PBE       
     DFT THRESHOLD         =.460E-07
     GRID CHANGE THRESHOLD =.300E-03
 FOR AN EULER-MACLAURIN QUADRATURE USING  96 RADIAL POINTS:
 SMALLEST GAUSSIAN PRIMITIVE EXPONENT=        0.1313100000 OF TYPE -P-
 ON ATOM NUMBER   1 HAS RADIAL NORMALIZATION=  1.000000
  LARGEST GAUSSIAN PRIMITIVE EXPONENT=    55510.0000000000 OF TYPE -S-
 ON ATOM NUMBER   1 HAS RADIAL NORMALIZATION=  0.999999
 DFT IS SWITCHED OFF, PERFORMING PURE SCF UNTIL SWOFF THRESHOLD IS REACHED.

 ITER EX DEM     TOTAL ENERGY        E CHANGE  DENSITY CHANGE    DIIS ERROR
   1  0  0     -545.9555121489  -545.9555121489   0.337698800   1.506423557
          * * *   INITIATING DIIS PROCEDURE   * * *
   2  1  0     -546.8224953070    -0.8669831581   0.508472562   0.271810129
   3  2  0     -546.9444462167    -0.1219509097   0.114710096   0.215856152
   4  3  0     -547.0489227338    -0.1044765172   0.119191351   0.028384127
   5  4  0     -547.0561865770    -0.0072638432   0.093120122   0.015903444
   6  5  0     -547.0587976020    -0.0026110250   0.048930464   0.007149890
   7  6  0     -547.0594073599    -0.0006097579   0.008723407   0.001258535
   8  7  0     -547.0594251500    -0.0000177901   0.000236543   0.000214314
 CONVERGED TO SWOFF, SO DFT CALCULATION IS NOW SWITCHED ON.
 DFT CODE IS SWITCHING BACK TO THE FINE GRID
          * * *   INITIATING DIIS PROCEDURE   * * *
   9  8  0     -548.1670299515    -1.1076048015   0.185859240   0.109196573
  10  9  0     -548.1804078849    -0.0133779334   0.154337269   0.071477067
  11 10  0     -548.1773154824     0.0030924025   0.063406814   0.090604371
  12 11  0     -548.1979434213    -0.0206279389   0.012087501   0.016572772
  13 12  0     -548.1985004074    -0.0005569861   0.002690397   0.001146354
  14 13  0     -548.1985028510    -0.0000024436   0.001121635   0.000153122
  15 14  0     -548.1985029935    -0.0000001425   0.000123716   0.000028711
  16 15  0     -548.1985029970    -0.0000000035   0.000011136   0.000004241
  17 16  0     -548.1985029970    -0.0000000001   0.000001124   0.000000220
  18 17  0     -548.1985029970     0.0000000000   0.000000095   0.000000024

          -----------------
          DENSITY CONVERGED
          -----------------
     TIME TO FORM FOCK OPERATORS=       5.0 SECONDS (       0.3 SEC/ITER)
     TIME TO SOLVE SCF EQUATIONS=       0.0 SECONDS (       0.0 SEC/ITER)

 FINAL R-PBE ENERGY IS     -548.1985029970 AFTER  18 ITERATIONS
 DFT EXCHANGE + CORRELATION ENERGY =       -42.6147235692
 TOTAL ELECTRON NUMBER             =        32.0000131817

          ------------
          EIGENVECTORS
          ------------

                      1          2          3          4          5
                  -88.2038   -18.8053   -18.8052    -7.8256    -5.8477
                     A1         B1         A1         A1         B1  
    1  S  1  S    1.002989   0.000000  -0.000042  -0.273999   0.000000
    2  S  1  S   -0.010269   0.000000   0.000154   1.039359   0.000000
    3  S  1  S    0.001933   0.000000  -0.000169   0.041466   0.000000
    4  S  1  S   -0.000418   0.000000   0.008888  -0.008643   0.000000
    5  S  1  X    0.000000  -0.000082   0.000000   0.000000   0.996327
    6  S  1  Y    0.000000   0.000000   0.000000   0.000000   0.000000
    7  S  1  Z    0.000068   0.000000   0.000010   0.014299   0.000000
    8  S  1  X    0.000000  -0.001732   0.000000   0.000000   0.009793
    9  S  1  Y    0.000000   0.000000   0.000000   0.000000   0.000000
   10  S  1  Z    0.000093   0.000000   0.000530   0.001815   0.000000
   11  S  1  X    0.000000  -0.008297   0.000000   0.000000  -0.000545
   12  S  1  Y    0.000000   0.000000   0.000000   0.000000   0.000000
   13  S  1  Z    0.000035   0.000000   0.002237  -0.000233   0.000000
   14  S  1 XX    0.000293   0.000000  -0.000148   0.002616   0.000000
   15  S  1 YY   -0.000158   0.000000  -0.000059  -0.001317   0.000000
   16  S  1 ZZ   -0.000135   0.000000   0.000207  -0.001299   0.000000
   17  S  1 XY    0.000000   0.000000   0.000000   0.000000   0.000000
   18  S  1 XZ    0.000000  -0.000053   0.000000   0.000000   0.001430
   19  S  1 YZ    0.000000   0.000000   0.000000   0.000000   0.000000
   20  O  2  S    0.000020   0.703301   0.703236  -0.000150   0.000713
   21  O  2  S    0.000062   0.026615   0.025955   0.000070  -0.000630
   22  O  2  S   -0.000339  -0.015197  -0.012403  -0.001825  -0.000452
   23  O  2  X   -0.000104   0.000911   0.001223  -0.000580  -0.001355
   24  O  2  Y    0.000000   0.000000   0.000000   0.000000   0.000000
   25  O  2  Z    0.000032  -0.000288  -0.000050   0.000172   0.000424
   26  O  2  X   -0.000295  -0.002884  -0.003683  -0.002215  -0.000086
   27  O  2  Y    0.000000   0.000000   0.000000   0.000000   0.000000
   28  O  2  Z    0.000093   0.001652   0.000013   0.000794   0.000298
   29  O  2 XX   -0.000159  -0.000186  -0.000364  -0.000361  -0.000838
   30  O  2 YY    0.000095   0.000158   0.000167   0.000241   0.000538
   31  O  2 ZZ    0.000064   0.000027   0.000198   0.000120   0.000300
   32  O  2 XY    0.000000   0.000000   0.000000   0.000000   0.000000
   33  O  2 XZ    0.000100   0.000276  -0.000022   0.000321   0.000679
   34  O  2 YZ    0.000000   0.000000   0.000000   0.000000   0.000000
   35  O  3  S    0.000020  -0.703301   0.703236  -0.000150  -0.000713
   36  O  3  S    0.000062  -0.026615   0.025955   0.000070   0.000630
   37  O  3  S   -0.000339   0.015197  -0.012403  -0.001825   0.000452
   38  O  3  X    0.000104   0.000911  -0.001223   0.000580  -0.001355
   39  O  3  Y    0.000000   0.000000   0.000000   0.000000   0.000000
   40  O  3  Z    0.000032   0.000288  -0.000050   0.000172  -0.000424
   41  O  3  X    0.000295  -0.002884   0.003683   0.002215  -0.000086
   42  O  3  Y    0.000000   0.000000   0.000000   0.000000   0.000000
   43  O  3  Z    0.000093  -0.001652   0.000013   0.000794  -0.000298
   44  O  3 XX   -0.000159   0.000186  -0.000364  -0.000361   0.000838
   45  O  3 YY    0.000095  -0.000158   0.000167   0.000241  -0.000538
   46  O  3 ZZ    0.000064  -0.000027   0.000198   0.000120  -0.000300
   47  O  3 XY    0.000000   0.000000   0.000000   0.000000   0.000000
   48  O  3 XZ   -0.000100   0.000276   0.000022  -0.000321   0.000679
   49  O  3 YZ    0.000000   0.000000   0.000000   0.000000   0.000000

                      6          7          8          9         10
                   -5.8448    -5.8400    -1.0776    -1.0071    -0.5652
                     B2         A1         A1         B1         A1  
    1  S  1  S    0.000000   0.004083   0.053649   0.000000   0.059654
    2  S  1  S    0.000000  -0.015364  -0.157185   0.000000  -0.160385
    3  S  1  S    0.000000   0.000462   0.307549   0.000000   0.388356
    4  S  1  S    0.000000  -0.001307   0.136605   0.000000   0.305720
    5  S  1  X    0.000000   0.000000   0.000000   0.153906   0.000000
    6  S  1  Y    0.996887   0.000000   0.000000   0.000000   0.000000
    7  S  1  Z    0.000000   0.996838  -0.042611   0.000000   0.001069
    8  S  1  X    0.000000   0.000000   0.000000  -0.285537   0.000000
    9  S  1  Y    0.008930   0.000000   0.000000   0.000000   0.000000
   10  S  1  Z    0.000000   0.008626   0.083255   0.000000   0.007552
   11  S  1  X    0.000000   0.000000   0.000000  -0.002633   0.000000
   12  S  1  Y   -0.000209   0.000000   0.000000   0.000000   0.000000
   13  S  1  Z    0.000000  -0.000265  -0.000322   0.000000  -0.023548
   14  S  1 XX    0.000000  -0.000923   0.076384   0.000000  -0.025375
   15  S  1 YY    0.000000  -0.000387  -0.042220   0.000000   0.017513
   16  S  1 ZZ    0.000000   0.001310  -0.034164   0.000000   0.007862
   17  S  1 XY    0.000000   0.000000   0.000000   0.000000   0.000000
   18  S  1 XZ    0.000000   0.000000   0.000000  -0.052359   0.000000
   19  S  1 YZ    0.000981   0.000000   0.000000   0.000000   0.000000
   20  O  2  S    0.000000  -0.000202  -0.123592  -0.143414   0.106531
   21  O  2  S    0.000000   0.000114   0.244442   0.285433  -0.219238
   22  O  2  S    0.000000   0.000803   0.254120   0.325393  -0.368445
   23  O  2  X    0.000000   0.000545   0.121216   0.119137   0.216649
   24  O  2  Y    0.000147   0.000000   0.000000   0.000000   0.000000
   25  O  2  Z    0.000000  -0.000011  -0.023940  -0.027662  -0.057333
   26  O  2  X    0.000000   0.000366   0.039142   0.034469   0.110529
   27  O  2  Y   -0.000026   0.000000   0.000000   0.000000   0.000000
   28  O  2  Z    0.000000  -0.000157  -0.001434  -0.011792  -0.023788
   29  O  2 XX    0.000000   0.000420   0.013202   0.009847   0.012471
   30  O  2 YY    0.000000  -0.000154  -0.005320  -0.005064  -0.007710
   31  O  2 ZZ    0.000000  -0.000266  -0.007882  -0.004783  -0.004761
   32  O  2 XY    0.000236   0.000000   0.000000   0.000000   0.000000
   33  O  2 XZ    0.000000   0.000007  -0.000908  -0.006202  -0.006570
   34  O  2 YZ   -0.000102   0.000000   0.000000   0.000000   0.000000
   35  O  3  S    0.000000  -0.000202  -0.123592   0.143414   0.106531
   36  O  3  S    0.000000   0.000114   0.244442  -0.285433  -0.219238
   37  O  3  S    0.000000   0.000803   0.254120  -0.325393  -0.368445
   38  O  3  X    0.000000  -0.000545  -0.121216   0.119137  -0.216649
   39  O  3  Y    0.000147   0.000000   0.000000   0.000000   0.000000
   40  O  3  Z    0.000000  -0.000011  -0.023940   0.027662  -0.057333
   41  O  3  X    0.000000  -0.000366  -0.039142   0.034469  -0.110529
   42  O  3  Y   -0.000026   0.000000   0.000000   0.000000   0.000000
   43  O  3  Z    0.000000  -0.000157  -0.001434   0.011792  -0.023788
   44  O  3 XX    0.000000   0.000420   0.013202  -0.009847   0.012471
   45  O  3 YY    0.000000  -0.000154  -0.005320   0.005064  -0.007710
   46  O  3 ZZ    0.000000  -0.000266  -0.007882   0.004783  -0.004761
   47  O  3 XY   -0.000236   0.000000   0.000000   0.000000   0.000000
   48  O  3 XZ    0.000000  -0.000007   0.000908  -0.006202   0.006570
   49  O  3 YZ   -0.000102   0.000000   0.000000   0.000000   0.000000

                     11         12         13         14         15
                   -0.4590    -0.4509    -0.4505    -0.3594    -0.3495
                     B2         B1         A1         A2         B1  
    1  S  1  S    0.000000   0.000000  -0.008755   0.000000   0.000000
    2  S  1  S    0.000000   0.000000   0.029761   0.000000   0.000000
    3  S  1  S    0.000000   0.000000  -0.049241   0.000000   0.000000
    4  S  1  S    0.000000   0.000000  -0.116066   0.000000   0.000000
    5  S  1  X    0.000000  -0.159911   0.000000   0.000000  -0.013459
    6  S  1  Y   -0.199632   0.000000   0.000000   0.000000   0.000000
    7  S  1  Z    0.000000   0.000000  -0.192932   0.000000   0.000000
    8  S  1  X    0.000000   0.373706   0.000000   0.000000   0.024408
    9  S  1  Y    0.459734   0.000000   0.000000   0.000000   0.000000
   10  S  1  Z    0.000000   0.000000   0.440883   0.000000   0.000000
   11  S  1  X    0.000000  -0.024616   0.000000   0.000000   0.049113
   12  S  1  Y    0.217352   0.000000   0.000000   0.000000   0.000000
   13  S  1  Z    0.000000   0.000000   0.202885   0.000000   0.000000
   14  S  1 XX    0.000000   0.000000  -0.054530   0.000000   0.000000
   15  S  1 YY    0.000000   0.000000  -0.009241   0.000000   0.000000
   16  S  1 ZZ    0.000000   0.000000   0.063772   0.000000   0.000000
   17  S  1 XY    0.000000   0.000000   0.000000  -0.149095   0.000000
   18  S  1 XZ    0.000000   0.030736   0.000000   0.000000  -0.143858
   19  S  1 YZ    0.042685   0.000000   0.000000   0.000000   0.000000
   20  O  2  S    0.000000  -0.068126   0.008688   0.000000   0.001136
   21  O  2  S    0.000000   0.141517  -0.018994   0.000000  -0.004266
   22  O  2  S    0.000000   0.241594  -0.023499   0.000000   0.004425
   23  O  2  X    0.000000  -0.369204   0.130668   0.000000   0.164347
   24  O  2  Y    0.323053   0.000000   0.000000   0.458576   0.000000
   25  O  2  Z    0.000000   0.128636   0.299503   0.000000   0.429861
   26  O  2  X    0.000000  -0.196841   0.088119   0.000000   0.106337
   27  O  2  Y    0.186874   0.000000   0.000000   0.313883   0.000000
   28  O  2  Z    0.000000   0.080579   0.172843   0.000000   0.294653
   29  O  2 XX    0.000000  -0.013378   0.015476   0.000000   0.006154
   30  O  2 YY    0.000000   0.008796  -0.004105   0.000000   0.000680
   31  O  2 ZZ    0.000000   0.004582  -0.011371   0.000000  -0.006834
   32  O  2 XY    0.025116   0.000000   0.000000   0.019875   0.000000
   33  O  2 XZ    0.000000   0.010865   0.018803   0.000000   0.020092
   34  O  2 YZ   -0.005233   0.000000   0.000000  -0.004052   0.000000
   35  O  3  S    0.000000   0.068126   0.008688   0.000000  -0.001136
   36  O  3  S    0.000000  -0.141517  -0.018994   0.000000   0.004266
   37  O  3  S    0.000000  -0.241594  -0.023499   0.000000  -0.004425
   38  O  3  X    0.000000  -0.369204  -0.130668   0.000000   0.164347
   39  O  3  Y    0.323053   0.000000   0.000000  -0.458576   0.000000
   40  O  3  Z    0.000000  -0.128636   0.299503   0.000000  -0.429861
   41  O  3  X    0.000000  -0.196841  -0.088119   0.000000   0.106337
   42  O  3  Y    0.186874   0.000000   0.000000  -0.313883   0.000000
   43  O  3  Z    0.000000  -0.080579   0.172843   0.000000  -0.294653
   44  O  3 XX    0.000000   0.013378   0.015476   0.000000  -0.006154
   45  O  3 YY    0.000000  -0.008796  -0.004105   0.000000  -0.000680
   46  O  3 ZZ    0.000000  -0.004582  -0.011371   0.000000   0.006834
   47  O  3 XY   -0.025116   0.000000   0.000000   0.019875   0.000000
   48  O  3 XZ    0.000000   0.010865  -0.018803   0.000000   0.020092
   49  O  3 YZ   -0.005233   0.000000   0.000000   0.004052   0.000000

                     16         17         18         19         20
                   -0.2318    -0.1323    -0.0673     0.1774     0.3546
                     A1         B2         A1         B1         B2  
    1  S  1  S    0.027311   0.000000   0.015473   0.000000   0.000000
    2  S  1  S   -0.142118   0.000000  -0.097979   0.000000   0.000000
    3  S  1  S    0.096358   0.000000   0.037743   0.000000   0.000000
    4  S  1  S    0.808951   0.000000   0.716068   0.000000   0.000000
    5  S  1  X    0.000000   0.000000   0.000000  -0.090313   0.000000
    6  S  1  Y    0.000000  -0.215368   0.000000   0.000000   0.284035
    7  S  1  Z    0.110411   0.000000  -0.182960   0.000000   0.000000
    8  S  1  X    0.000000   0.000000   0.000000   0.238738   0.000000
    9  S  1  Y    0.000000   0.552681   0.000000   0.000000  -1.099627
   10  S  1  Z   -0.265448   0.000000   0.483475   0.000000   0.000000
   11  S  1  X    0.000000   0.000000   0.000000   1.855657   0.000000
   12  S  1  Y    0.000000   0.542774   0.000000   0.000000   1.259105
   13  S  1  Z   -0.131524   0.000000   0.620036   0.000000   0.000000
   14  S  1 XX   -0.206194   0.000000  -0.153644   0.000000   0.000000
   15  S  1 YY    0.106885   0.000000   0.112171   0.000000   0.000000
   16  S  1 ZZ    0.099309   0.000000   0.041472   0.000000   0.000000
   17  S  1 XY    0.000000   0.000000   0.000000   0.000000   0.000000
   18  S  1 XZ    0.000000   0.000000   0.000000  -0.137611   0.000000
   19  S  1 YZ    0.000000  -0.024732   0.000000   0.000000  -0.169230
   20  O  2  S    0.019931   0.000000   0.035063  -0.076872   0.000000
   21  O  2  S   -0.045684   0.000000  -0.073290   0.111080   0.000000
   22  O  2  S   -0.135826   0.000000  -0.288117   1.039076   0.000000
   23  O  2  X   -0.263224   0.000000  -0.296299   0.058243   0.000000
   24  O  2  Y    0.000000  -0.392299   0.000000   0.000000  -0.051351
   25  O  2  Z    0.295754   0.000000  -0.255861  -0.163397   0.000000
   26  O  2  X   -0.198342   0.000000  -0.290071   0.296314   0.000000
   27  O  2  Y    0.000000  -0.351113   0.000000   0.000000  -0.099218
   28  O  2  Z    0.226919   0.000000  -0.241374  -0.225859   0.000000
   29  O  2 XX   -0.004723   0.000000  -0.002751   0.017945   0.000000
   30  O  2 YY    0.002368   0.000000   0.003096  -0.007015   0.000000
   31  O  2 ZZ    0.002354   0.000000  -0.000345  -0.010929   0.000000
   32  O  2 XY    0.000000  -0.001367   0.000000   0.000000  -0.034291
   33  O  2 XZ    0.003434   0.000000   0.001936  -0.001545   0.000000
   34  O  2 YZ    0.000000  -0.001083   0.000000   0.000000   0.003184
   35  O  3  S    0.019931   0.000000   0.035063   0.076872   0.000000
   36  O  3  S   -0.045684   0.000000  -0.073290  -0.111080   0.000000
   37  O  3  S   -0.135826   0.000000  -0.288117  -1.039076   0.000000
   38  O  3  X    0.263224   0.000000   0.296299   0.058243   0.000000
   39  O  3  Y    0.000000  -0.392299   0.000000   0.000000  -0.051351
   40  O  3  Z    0.295754   0.000000  -0.255861   0.163397   0.000000
   41  O  3  X    0.198342   0.000000   0.290071   0.296314   0.000000
   42  O  3  Y    0.000000  -0.351113   0.000000   0.000000  -0.099218
   43  O  3  Z    0.226919   0.000000  -0.241374   0.225859   0.000000
   44  O  3 XX   -0.004723   0.000000  -0.002751  -0.017945   0.000000
   45  O  3 YY    0.002368   0.000000   0.003096   0.007015   0.000000
   46  O  3 ZZ    0.002354   0.000000  -0.000345   0.010929   0.000000
   47  O  3 XY    0.000000   0.001367   0.000000   0.000000   0.034291
   48  O  3 XZ   -0.003434   0.000000  -0.001936  -0.001545   0.000000
   49  O  3 YZ    0.000000  -0.001083   0.000000   0.000000   0.003184

                     21         22         23         24         25
                    0.3567     0.4158     0.4984     0.5208     0.5222
                     A1         A1         B1         B2         A1  
    1  S  1  S   -0.020763  -0.112634   0.000000   0.000000  -0.005741
    2  S  1  S   -0.092287  -0.368642   0.000000   0.000000  -0.004256
    3  S  1  S   -0.336367  -1.681050   0.000000   0.000000  -0.069296
    4  S  1  S    0.792941   2.368331   0.000000   0.000000  -0.103836
    5  S  1  X    0.000000   0.000000   0.282682   0.000000   0.000000
    6  S  1  Y    0.000000   0.000000   0.000000   0.052219   0.000000
    7  S  1  Z    0.269934  -0.071016   0.000000   0.000000  -0.046230
    8  S  1  X    0.000000   0.000000  -0.986177   0.000000   0.000000
    9  S  1  Y    0.000000   0.000000   0.000000  -0.206719   0.000000
   10  S  1  Z   -1.025644   0.301805   0.000000   0.000000   0.178279
   11  S  1  X    0.000000   0.000000   1.102115   0.000000   0.000000
   12  S  1  Y    0.000000   0.000000   0.000000   0.220025   0.000000
   13  S  1  Z    1.276835  -0.169720   0.000000   0.000000  -0.232806
   14  S  1 XX    0.221218   0.158776   0.000000   0.000000  -0.024446
   15  S  1 YY    0.020800  -0.127790   0.000000   0.000000   0.848999
   16  S  1 ZZ   -0.242018  -0.030987   0.000000   0.000000  -0.824552
   17  S  1 XY    0.000000   0.000000   0.000000   0.000000   0.000000
   18  S  1 XZ    0.000000   0.000000   0.538632   0.000000   0.000000
   19  S  1 YZ    0.000000   0.000000   0.000000   0.966560   0.000000
   20  O  2  S    0.013128   0.016692   0.001727   0.000000  -0.006774
   21  O  2  S    0.009724  -0.013399  -0.070357   0.000000   0.017189
   22  O  2  S   -0.364324  -0.470964   0.413481   0.000000   0.081791
   23  O  2  X    0.099340   0.190559  -0.292722   0.000000   0.034801
   24  O  2  Y    0.000000   0.000000   0.000000  -0.144759   0.000000
   25  O  2  Z   -0.068104  -0.067686   0.204866   0.000000   0.144555
   26  O  2  X   -0.181648  -0.259770   0.066278   0.000000   0.074892
   27  O  2  Y    0.000000   0.000000   0.000000   0.011010   0.000000
   28  O  2  Z   -0.037007   0.100057   0.035789   0.000000  -0.035386
   29  O  2 XX   -0.044936  -0.054677   0.036283   0.000000  -0.000684
   30  O  2 YY    0.021875   0.031645  -0.032757   0.000000   0.033068
   31  O  2 ZZ    0.023061   0.023032  -0.003526   0.000000  -0.032384
   32  O  2 XY    0.000000   0.000000   0.000000   0.017674   0.000000
   33  O  2 XZ   -0.013411   0.038372  -0.052518   0.000000  -0.020142
   34  O  2 YZ    0.000000   0.000000   0.000000   0.038263   0.000000
   35  O  3  S    0.013128   0.016692  -0.001727   0.000000  -0.006774
   36  O  3  S    0.009724  -0.013399   0.070357   0.000000   0.017189
   37  O  3  S   -0.364324  -0.470964  -0.413481   0.000000   0.081791
   38  O  3  X   -0.099340  -0.190559  -0.292722   0.000000  -0.034801
   39  O  3  Y    0.000000   0.000000   0.000000  -0.144759   0.000000
   40  O  3  Z   -0.068104  -0.067686  -0.204866   0.000000   0.144555
   41  O  3  X    0.181648   0.259770   0.066278   0.000000  -0.074892
   42  O  3  Y    0.000000   0.000000   0.000000   0.011010   0.000000
   43  O  3  Z   -0.037007   0.100057  -0.035789   0.000000  -0.035386
   44  O  3 XX   -0.044936  -0.054677  -0.036283   0.000000  -0.000684
   45  O  3 YY    0.021875   0.031645   0.032757   0.000000   0.033068
   46  O  3 ZZ    0.023061   0.023032   0.003526   0.000000  -0.032384
   47  O  3 XY    0.000000   0.000000   0.000000  -0.017674   0.000000
   48  O  3 XZ    0.013411  -0.038372  -0.052518   0.000000   0.020142
   49  O  3 YZ    0.000000   0.000000   0.000000   0.038263   0.000000

                     26         27         28         29         30
                    0.6033     0.6355     0.6475     0.7430     0.7583
                     A2         A1         B1         A2         B1  
    1  S  1  S    0.000000  -0.042645   0.000000   0.000000   0.000000
    2  S  1  S    0.000000  -0.152357   0.000000   0.000000   0.000000
    3  S  1  S    0.000000  -0.677812   0.000000   0.000000   0.000000
    4  S  1  S    0.000000  -1.071820   0.000000   0.000000   0.000000
    5  S  1  X    0.000000   0.000000  -0.208601   0.000000  -0.015880
    6  S  1  Y    0.000000   0.000000   0.000000   0.000000   0.000000
    7  S  1  Z    0.000000   0.064784   0.000000   0.000000   0.000000
    8  S  1  X    0.000000   0.000000   1.075637   0.000000   0.150522
    9  S  1  Y    0.000000   0.000000   0.000000   0.000000   0.000000
   10  S  1  Z    0.000000  -0.347261   0.000000   0.000000   0.000000
   11  S  1  X    0.000000   0.000000   0.052964   0.000000  -0.251376
   12  S  1  Y    0.000000   0.000000   0.000000   0.000000   0.000000
   13  S  1  Z    0.000000  -0.037565   0.000000   0.000000   0.000000
   14  S  1 XX    0.000000  -0.570887   0.000000   0.000000   0.000000
   15  S  1 YY    0.000000   0.279999   0.000000   0.000000   0.000000
   16  S  1 ZZ    0.000000   0.290888   0.000000   0.000000   0.000000
   17  S  1 XY    0.883476   0.000000   0.000000   0.520313   0.000000
   18  S  1 XZ    0.000000   0.000000   0.473481   0.000000   0.212637
   19  S  1 YZ    0.000000   0.000000   0.000000   0.000000   0.000000
   20  O  2  S    0.000000  -0.060737  -0.054150   0.000000   0.003623
   21  O  2  S    0.000000   0.119957   0.130928   0.000000  -0.096277
   22  O  2  S    0.000000   0.622842   0.415903   0.000000   0.057666
   23  O  2  X    0.000000  -0.312165  -0.139376   0.000000  -0.225669
   24  O  2  Y    0.406305   0.000000   0.000000  -0.521159   0.000000
   25  O  2  Z    0.000000   0.013553   0.212678   0.000000  -0.567822
   26  O  2  X    0.000000   1.160923   0.949860   0.000000   0.407575
   27  O  2  Y   -0.069533   0.000000   0.000000   0.814783   0.000000
   28  O  2  Z    0.000000  -0.283965  -0.314344   0.000000   0.723621
   29  O  2 XX    0.000000   0.001410  -0.041634   0.000000  -0.019743
   30  O  2 YY    0.000000  -0.001015   0.015499   0.000000   0.005216
   31  O  2 ZZ    0.000000  -0.000395   0.026134   0.000000   0.014526
   32  O  2 XY   -0.061755   0.000000   0.000000  -0.052943   0.000000
   33  O  2 XZ    0.000000  -0.000836   0.000939   0.000000  -0.017718
   34  O  2 YZ    0.028041   0.000000   0.000000   0.019742   0.000000
   35  O  3  S    0.000000  -0.060737   0.054150   0.000000  -0.003623
   36  O  3  S    0.000000   0.119957  -0.130928   0.000000   0.096277
   37  O  3  S    0.000000   0.622842  -0.415903   0.000000  -0.057666
   38  O  3  X    0.000000   0.312165  -0.139376   0.000000  -0.225669
   39  O  3  Y   -0.406305   0.000000   0.000000   0.521159   0.000000
   40  O  3  Z    0.000000   0.013553  -0.212678   0.000000   0.567822
   41  O  3  X    0.000000  -1.160923   0.949860   0.000000   0.407575
   42  O  3  Y    0.069533   0.000000   0.000000  -0.814783   0.000000
   43  O  3  Z    0.000000  -0.283965   0.314344   0.000000  -0.723621
   44  O  3 XX    0.000000   0.001410   0.041634   0.000000   0.019743
   45  O  3 YY    0.000000  -0.001015  -0.015499   0.000000  -0.005216
   46  O  3 ZZ    0.000000  -0.000395  -0.026134   0.000000  -0.014526
   47  O  3 XY   -0.061755   0.000000   0.000000  -0.052943   0.000000
   48  O  3 XZ    0.000000   0.000836   0.000939   0.000000  -0.017718
   49  O  3 YZ   -0.028041   0.000000   0.000000  -0.019742   0.000000

                     31         32         33         34         35
                    0.8438     0.8626     0.9050     1.2610     1.5994
                     A1         B2         B1         A1         A1  
    1  S  1  S    0.006944   0.000000   0.000000  -0.003892  -0.009242
    2  S  1  S    0.039295   0.000000   0.000000  -0.227143  -0.076350
    3  S  1  S    0.128759   0.000000   0.000000  -0.325754  -0.175992
    4  S  1  S   -0.058779   0.000000   0.000000   1.216594   1.950721
    5  S  1  X    0.000000   0.000000  -0.135217   0.000000   0.000000
    6  S  1  Y    0.000000  -0.027879   0.000000   0.000000   0.000000
    7  S  1  Z   -0.031000   0.000000   0.000000  -0.066265   0.002230
    8  S  1  X    0.000000   0.000000   0.303069   0.000000   0.000000
    9  S  1  Y    0.000000   0.091181   0.000000   0.000000   0.000000
   10  S  1  Z    0.115478   0.000000   0.000000   0.239191   0.078865
   11  S  1  X    0.000000   0.000000   0.204889   0.000000   0.000000
   12  S  1  Y    0.000000  -0.812013   0.000000   0.000000   0.000000
   13  S  1  Z   -0.790181   0.000000   0.000000   0.137535   0.498288
   14  S  1 XX    0.147787   0.000000   0.000000   1.176471   0.174854
   15  S  1 YY    0.085083   0.000000   0.000000  -0.655659  -0.119409
   16  S  1 ZZ   -0.232871   0.000000   0.000000  -0.520812  -0.055445
   17  S  1 XY    0.000000   0.000000   0.000000   0.000000   0.000000
   18  S  1 XZ    0.000000   0.000000   0.765397   0.000000   0.000000
   19  S  1 YZ    0.000000  -0.181270   0.000000   0.000000   0.000000
   20  O  2  S   -0.006132   0.000000  -0.023281   0.037121  -0.005583
   21  O  2  S    0.108035   0.000000   0.129616  -0.042126   1.216118
   22  O  2  S   -0.057475   0.000000   0.202437  -0.730407  -1.939732
   23  O  2  X   -0.175297   0.000000   0.597335  -0.552355   0.071383
   24  O  2  Y    0.000000  -0.618907   0.000000   0.000000   0.000000
   25  O  2  Z   -0.578356   0.000000  -0.090567   0.250032   0.053930
   26  O  2  X    0.184476   0.000000  -0.342578  -0.017261  -0.712962
   27  O  2  Y    0.000000   0.996985   0.000000   0.000000   0.000000
   28  O  2  Z    0.958640   0.000000   0.248744  -0.014371  -0.038641
   29  O  2 XX   -0.009029   0.000000  -0.042203  -0.024212   0.192552
   30  O  2 YY    0.003380   0.000000  -0.011514  -0.028664  -0.088032
   31  O  2 ZZ    0.005649   0.000000   0.053716   0.052876  -0.104519
   32  O  2 XY    0.000000  -0.042891   0.000000   0.000000   0.000000
   33  O  2 XZ   -0.040432   0.000000  -0.076826  -0.095112   0.011107
   34  O  2 YZ    0.000000   0.000696   0.000000   0.000000   0.000000
   35  O  3  S   -0.006132   0.000000   0.023281   0.037121  -0.005583
   36  O  3  S    0.108035   0.000000  -0.129616  -0.042126   1.216118
   37  O  3  S   -0.057475   0.000000  -0.202437  -0.730407  -1.939732
   38  O  3  X    0.175297   0.000000   0.597335   0.552355  -0.071383
   39  O  3  Y    0.000000  -0.618907   0.000000   0.000000   0.000000
   40  O  3  Z   -0.578356   0.000000   0.090567   0.250032   0.053930
   41  O  3  X   -0.184476   0.000000  -0.342578   0.017261   0.712962
   42  O  3  Y    0.000000   0.996985   0.000000   0.000000   0.000000
   43  O  3  Z    0.958640   0.000000  -0.248744  -0.014371  -0.038641
   44  O  3 XX   -0.009029   0.000000   0.042203  -0.024212   0.192552
   45  O  3 YY    0.003380   0.000000   0.011514  -0.028664  -0.088032
   46  O  3 ZZ    0.005649   0.000000  -0.053716   0.052876  -0.104519
   47  O  3 XY    0.000000   0.042891   0.000000   0.000000   0.000000
   48  O  3 XZ    0.040432   0.000000  -0.076826   0.095112  -0.011107
   49  O  3 YZ    0.000000   0.000696   0.000000   0.000000   0.000000

                     36         37         38         39         40
                    1.7714     2.0382     2.0383     2.0666     2.0774
                     B1         A2         B1         B2         A1  
    1  S  1  S    0.000000   0.000000   0.000000   0.000000   0.002095
    2  S  1  S    0.000000   0.000000   0.000000   0.000000   0.018744
    3  S  1  S    0.000000   0.000000   0.000000   0.000000   0.049812
    4  S  1  S    0.000000   0.000000   0.000000   0.000000  -0.030996
    5  S  1  X   -0.021157   0.000000   0.000087   0.000000   0.000000
    6  S  1  Y    0.000000   0.000000   0.000000  -0.030007   0.000000
    7  S  1  Z    0.000000   0.000000   0.000000   0.000000  -0.008634
    8  S  1  X    0.316379   0.000000  -0.003881   0.000000   0.000000
    9  S  1  Y    0.000000   0.000000   0.000000   0.111950   0.000000
   10  S  1  Z    0.000000   0.000000   0.000000   0.000000   0.039600
   11  S  1  X    1.703440   0.000000   0.043935   0.000000   0.000000
   12  S  1  Y    0.000000   0.000000   0.000000   0.020738   0.000000
   13  S  1  Z    0.000000   0.000000   0.000000   0.000000  -0.008957
   14  S  1 XX    0.000000   0.000000   0.000000   0.000000  -0.068298
   15  S  1 YY    0.000000   0.000000   0.000000   0.000000   0.158130
   16  S  1 ZZ    0.000000   0.000000   0.000000   0.000000  -0.089832
   17  S  1 XY    0.000000   0.024325   0.000000   0.000000   0.000000
   18  S  1 XZ    0.173974   0.000000  -0.022940   0.000000   0.000000
   19  S  1 YZ    0.000000   0.000000   0.000000  -0.091030   0.000000
   20  O  2  S   -0.007093   0.000000   0.000131   0.000000  -0.001958
   21  O  2  S   -1.280597   0.000000  -0.024577   0.000000   0.041476
   22  O  2  S    2.361332   0.000000   0.042888   0.000000  -0.016360
   23  O  2  X    0.053897   0.000000   0.002831   0.000000   0.034335
   24  O  2  Y    0.000000  -0.005879   0.000000   0.026217   0.000000
   25  O  2  Z    0.070866   0.000000   0.009114   0.000000  -0.004967
   26  O  2  X    0.414100   0.000000  -0.003824   0.000000  -0.026961
   27  O  2  Y    0.000000   0.010492   0.000000  -0.044434   0.000000
   28  O  2  Z   -0.322115   0.000000  -0.017336   0.000000   0.001451
   29  O  2 XX   -0.161745   0.000000  -0.095096   0.000000  -0.021595
   30  O  2 YY    0.096616   0.000000   0.615431   0.000000  -0.593557
   31  O  2 ZZ    0.065129   0.000000  -0.520336   0.000000   0.615151
   32  O  2 XY    0.000000   0.265380   0.000000  -0.092434   0.000000
   33  O  2 XZ    0.142930   0.000000  -0.247365   0.000000   0.118384
   34  O  2 YZ    0.000000   0.655642   0.000000   0.703741   0.000000
   35  O  3  S    0.007093   0.000000  -0.000131   0.000000  -0.001958
   36  O  3  S    1.280597   0.000000   0.024577   0.000000   0.041476
   37  O  3  S   -2.361332   0.000000  -0.042888   0.000000  -0.016360
   38  O  3  X    0.053897   0.000000   0.002831   0.000000  -0.034335
   39  O  3  Y    0.000000   0.005879   0.000000   0.026217   0.000000
   40  O  3  Z   -0.070866   0.000000  -0.009114   0.000000  -0.004967
   41  O  3  X    0.414100   0.000000  -0.003824   0.000000   0.026961
   42  O  3  Y    0.000000  -0.010492   0.000000  -0.044434   0.000000
   43  O  3  Z    0.322115   0.000000   0.017336   0.000000   0.001451
   44  O  3 XX    0.161745   0.000000   0.095096   0.000000  -0.021595
   45  O  3 YY   -0.096616   0.000000  -0.615431   0.000000  -0.593557
   46  O  3 ZZ   -0.065129   0.000000   0.520336   0.000000   0.615151
   47  O  3 XY    0.000000   0.265380   0.000000   0.092434   0.000000
   48  O  3 XZ    0.142930   0.000000  -0.247365   0.000000  -0.118384
   49  O  3 YZ    0.000000  -0.655642   0.000000   0.703741   0.000000

                     41         42         43         44         45
                    2.1589     2.2840     2.3857     2.4569     2.8928
                     B2         A1         B1         A2         A1  
    1  S  1  S    0.000000  -0.008322   0.000000   0.000000  -0.058131
    2  S  1  S    0.000000  -0.052945   0.000000   0.000000  -0.101741
    3  S  1  S    0.000000  -0.176286   0.000000   0.000000  -0.868160
    4  S  1  S    0.000000  -0.238712   0.000000   0.000000  -1.481355
    5  S  1  X    0.000000   0.000000   0.033997   0.000000   0.000000
    6  S  1  Y    0.071686   0.000000   0.000000   0.000000   0.000000
    7  S  1  Z    0.000000   0.074367   0.000000   0.000000   0.056320
    8  S  1  X    0.000000   0.000000  -0.255773   0.000000   0.000000
    9  S  1  Y   -0.265061   0.000000   0.000000   0.000000   0.000000
   10  S  1  Z    0.000000  -0.316608   0.000000   0.000000  -0.396092
   11  S  1  X    0.000000   0.000000  -0.116187   0.000000   0.000000
   12  S  1  Y   -0.122236   0.000000   0.000000   0.000000   0.000000
   13  S  1  Z    0.000000  -0.204398   0.000000   0.000000  -0.133470
   14  S  1 XX    0.000000   0.286338   0.000000   0.000000  -1.042689
   15  S  1 YY    0.000000   0.009394   0.000000   0.000000   0.546743
   16  S  1 ZZ    0.000000  -0.295732   0.000000   0.000000   0.495946
   17  S  1 XY    0.000000   0.000000   0.000000   0.648996   0.000000
   18  S  1 XZ    0.000000   0.000000   0.556660   0.000000   0.000000
   19  S  1 YZ   -0.205746   0.000000   0.000000   0.000000   0.000000
   20  O  2  S    0.000000   0.001676   0.000101   0.000000  -0.043737
   21  O  2  S    0.000000  -0.305828   0.238541   0.000000  -0.538908
   22  O  2  S    0.000000   0.383169  -0.308619   0.000000   1.582559
   23  O  2  X    0.000000  -0.134442   0.081015   0.000000   0.173575
   24  O  2  Y   -0.071724   0.000000   0.000000  -0.012787   0.000000
   25  O  2  Z    0.000000  -0.033597  -0.048189   0.000000  -0.070463
   26  O  2  X    0.000000   0.271218  -0.110996   0.000000   0.857108
   27  O  2  Y    0.175244   0.000000   0.000000   0.211070   0.000000
   28  O  2  Z    0.000000   0.170114   0.234438   0.000000  -0.257454
   29  O  2 XX    0.000000   0.427641   0.217743   0.000000   0.716738
   30  O  2 YY    0.000000  -0.144155   0.130331   0.000000  -0.455175
   31  O  2 ZZ    0.000000  -0.283485  -0.348074   0.000000  -0.261563
   32  O  2 XY    0.725474   0.000000   0.000000   0.724740   0.000000
   33  O  2 XZ    0.000000   0.581973   0.664899   0.000000  -0.537723
   34  O  2 YZ    0.085272   0.000000   0.000000  -0.284145   0.000000
   35  O  3  S    0.000000   0.001676  -0.000101   0.000000  -0.043737
   36  O  3  S    0.000000  -0.305828  -0.238541   0.000000  -0.538908
   37  O  3  S    0.000000   0.383169   0.308619   0.000000   1.582559
   38  O  3  X    0.000000   0.134442   0.081015   0.000000  -0.173575
   39  O  3  Y   -0.071724   0.000000   0.000000   0.012787   0.000000
   40  O  3  Z    0.000000  -0.033597   0.048189   0.000000  -0.070463
   41  O  3  X    0.000000  -0.271218  -0.110996   0.000000  -0.857108
   42  O  3  Y    0.175244   0.000000   0.000000  -0.211070   0.000000
   43  O  3  Z    0.000000   0.170114  -0.234438   0.000000  -0.257454
   44  O  3 XX    0.000000   0.427641  -0.217743   0.000000   0.716738
   45  O  3 YY    0.000000  -0.144155  -0.130331   0.000000  -0.455175
   46  O  3 ZZ    0.000000  -0.283485   0.348074   0.000000  -0.261563
   47  O  3 XY   -0.725474   0.000000   0.000000   0.724740   0.000000
   48  O  3 XZ    0.000000  -0.581973   0.664899   0.000000   0.537723
   49  O  3 YZ    0.085272   0.000000   0.000000   0.284145   0.000000

                     46
                    2.8962
                     B1  
    1  S  1  S    0.000000
    2  S  1  S    0.000000
    3  S  1  S    0.000000
    4  S  1  S    0.000000
    5  S  1  X   -0.227452
    6  S  1  Y    0.000000
    7  S  1  Z    0.000000
    8  S  1  X    1.488774
    9  S  1  Y    0.000000
   10  S  1  Z    0.000000
   11  S  1  X    0.492138
   12  S  1  Y    0.000000
   13  S  1  Z    0.000000
   14  S  1 XX    0.000000
   15  S  1 YY    0.000000
   16  S  1 ZZ    0.000000
   17  S  1 XY    0.000000
   18  S  1 XZ    0.497508
   19  S  1 YZ    0.000000
   20  O  2  S   -0.037732
   21  O  2  S   -0.579853
   22  O  2  S    1.447002
   23  O  2  X    0.106541
   24  O  2  Y    0.000000
   25  O  2  Z   -0.001379
   26  O  2  X    0.760733
   27  O  2  Y    0.000000
   28  O  2  Z   -0.185484
   29  O  2 XX    0.823648
   30  O  2 YY   -0.394928
   31  O  2 ZZ   -0.428720
   32  O  2 XY    0.000000
   33  O  2 XZ   -0.230583
   34  O  2 YZ    0.000000
   35  O  3  S    0.037732
   36  O  3  S    0.579853
   37  O  3  S   -1.447002
   38  O  3  X    0.106541
   39  O  3  Y    0.000000
   40  O  3  Z    0.001379
   41  O  3  X    0.760733
   42  O  3  Y    0.000000
   43  O  3  Z    0.185484
   44  O  3 XX   -0.823648
   45  O  3 YY    0.394928
   46  O  3 ZZ    0.428720
   47  O  3 XY    0.000000
   48  O  3 XZ   -0.230583
   49  O  3 YZ    0.000000
 ...... END OF RHF CALCULATION ......
 STEP CPU TIME =     5.01 TOTAL CPU TIME =        5.2 (    0.1 MIN)
 TOTAL WALL CLOCK TIME=        5.2 SECONDS, CPU UTILIZATION IS  99.81%

     ---------------------------------------------------------------------
     PROPERTIES FOR THE PBE      DFT FUNCTIONAL (RHF  TYPE) DENSITY MATRIX
     ---------------------------------------------------------------------

          -----------------
          ENERGY COMPONENTS
          -----------------

         WAVEFUNCTION NORMALIZATION =       1.0000000000

                ONE ELECTRON ENERGY =    -972.4662539663
                TWO ELECTRON ENERGY =     314.9817487916
           NUCLEAR REPULSION ENERGY =     109.2860021777
                                      ------------------
                       TOTAL ENERGY =    -548.1985029970

 ELECTRON-ELECTRON POTENTIAL ENERGY =     314.9817487916
  NUCLEUS-ELECTRON POTENTIAL ENERGY =   -1520.5349665469
   NUCLEUS-NUCLEUS POTENTIAL ENERGY =     109.2860021777
                                      ------------------
             TOTAL POTENTIAL ENERGY =   -1096.2672155776
               TOTAL KINETIC ENERGY =     548.0687125806
                 VIRIAL RATIO (V/T) =       2.0002368141

          ---------------------------------------
          MULLIKEN AND LOWDIN POPULATION ANALYSES
          ---------------------------------------

     ATOMIC MULLIKEN POPULATION IN EACH MOLECULAR ORBITAL

                      1          2          3          4          5

                  2.000000   2.000000   2.000000   2.000000   2.000000

    1             2.000048   0.002047   0.001161   2.002684   1.999409
    2            -0.000024   0.998976   0.999420  -0.001342   0.000296
    3            -0.000024   0.998976   0.999420  -0.001342   0.000296

                      6          7          8          9         10

                  2.000000   2.000000   2.000000   2.000000   2.000000

    1             1.999986   1.999890   0.718098   0.409491   0.655937
    2             0.000007   0.000055   0.640951   0.795255   0.672032
    3             0.000007   0.000055   0.640951   0.795255   0.672032

                     11         12         13         14         15

                  2.000000   2.000000   2.000000   2.000000   2.000000

    1             0.952065   0.318757   0.923834   0.143151   0.148946
    2             0.523967   0.840621   0.538083   0.928425   0.925527
    3             0.523967   0.840621   0.538083   0.928425   0.925527

                     16

                  2.000000

    1             1.085611
    2             0.457195
    3             0.457195

               ----- POPULATIONS IN EACH AO -----
                             MULLIKEN      LOWDIN
              1  S  1  S      2.00025     1.99577
              2  S  1  S      2.01040     1.96051
              3  S  1  S      0.92702     0.56214
              4  S  1  S      1.02506     0.59576
              5  S  1  X      1.99696     1.95586
              6  S  1  Y      1.99616     1.95360
              7  S  1  Z      1.99687     1.95982
              8  S  1  X      0.70037     0.61419
              9  S  1  Y      0.62609     0.58272
             10  S  1  Z      0.77234     0.74030
             11  S  1  X      0.02581     0.23864
             12  S  1  Y      0.32112     0.38639
             13  S  1  Z      0.33085     0.42347
             14  S  1 XX      0.09222     0.37724
             15  S  1 YY      0.23225     0.30664
             16  S  1 ZZ      0.14315     0.31085
             17  S  1 XY      0.15550     0.17575
             18  S  1 XZ      0.00868     0.18872
             19  S  1 YZ      0.00000     0.00835
             20  O  2  S      1.99804     1.98062
             21  O  2  S      0.83668     0.64959
             22  O  2  S      1.00021     0.53639
             23  O  2  X      0.94814     0.90805
             24  O  2  Y      0.87851     0.83429
             25  O  2  Z      1.05033     1.01392
             26  O  2  X      0.40173     0.52935
             27  O  2  Y      0.56568     0.60209
             28  O  2  Z      0.61497     0.65320
             29  O  2 XX      0.00295     0.21037
             30  O  2 YY      0.00672     0.19767
             31  O  2 ZZ      0.00780     0.19476
             32  O  2 XY      0.00726     0.00970
             33  O  2 XZ      0.00040     0.01112
             34  O  2 YZ      0.00000     0.00051
             35  O  3  S      1.99804     1.98062
             36  O  3  S      0.83668     0.64959
             37  O  3  S      1.00021     0.53639
             38  O  3  X      0.94814     0.90805
             39  O  3  Y      0.87851     0.83429
             40  O  3  Z      1.05033     1.01392
             41  O  3  X      0.40173     0.52935
             42  O  3  Y      0.56568     0.60209
             43  O  3  Z      0.61497     0.65320
             44  O  3 XX      0.00295     0.21037
             45  O  3 YY      0.00672     0.19767
             46  O  3 ZZ      0.00780     0.19476
             47  O  3 XY      0.00726     0.00970
             48  O  3 XZ      0.00040     0.01112
             49  O  3 YZ      0.00000     0.00051

          ----- MULLIKEN ATOMIC OVERLAP POPULATIONS -----
          (OFF-DIAGONAL ELEMENTS NEED TO BE MULTIPLIED BY 2)

             1           2           3

    1   14.9053149
    2    0.2279000   8.0819280
    3    0.2279000   0.0096145   8.0819280

          TOTAL MULLIKEN AND LOWDIN ATOMIC POPULATIONS
       ATOM         MULL.POP.    CHARGE          LOW.POP.     CHARGE
    1 S            15.361115    0.638885        15.336727    0.663273
    2 O             8.319443   -0.319443         8.331637   -0.331637
    3 O             8.319443   -0.319443         8.331637   -0.331637

          MULLIKEN SPHERICAL HARMONIC POPULATIONS
       ATOM           S       P       D      F      G      H      I    TOTAL
    1 S             5.96    8.77    0.63   0.00   0.00   0.00   0.00   15.36
    2 O             3.83    4.46    0.03   0.00   0.00   0.00   0.00    8.32
    3 O             3.83    4.46    0.03   0.00   0.00   0.00   0.00    8.32

          -------------------------------
          BOND ORDER AND VALENCE ANALYSIS     BOND ORDER THRESHOLD=0.050
          -------------------------------

                   BOND                       BOND                       BOND
  ATOM PAIR DIST  ORDER      ATOM PAIR DIST  ORDER      ATOM PAIR DIST  ORDER
    1   2  1.400  1.910        1   3  1.400  1.910        2   3  2.705  0.248

                       TOTAL       BONDED        FREE
      ATOM            VALENCE     VALENCE     VALENCE
    1 S                 3.820       3.820       0.000
    2 O                 2.159       2.159       0.000
    3 O                 2.159       2.159       0.000

          ---------------------
          ELECTROSTATIC MOMENTS
          ---------------------

 POINT   1           X           Y           Z (BOHR)    CHARGE
                 0.000000    0.000000    0.000000        0.00 (A.U.)
         DX          DY          DZ         /D/  (DEBYE)
     0.000000    0.000000   -0.115195    0.115195
 ...... END OF PROPERTY EVALUATION ......
 STEP CPU TIME =     0.01 TOTAL CPU TIME =        5.2 (    0.1 MIN)
 TOTAL WALL CLOCK TIME=        5.2 SECONDS, CPU UTILIZATION IS 100.00%
               580000  WORDS OF DYNAMIC MEMORY USED
 EXECUTION OF GAMESS TERMINATED NORMALLY Thu Feb 26 00:16:01 2015
 DDI: 263624 bytes (0.3 MB / 0 MWords) used by master data server.

 ----------------------------------------
 CPU timing information for all processes
 ========================================
 0: 5.171 + 0.37 = 5.209
 ----------------------------------------
 ddikick.x: exited gracefully.
----- accounting info -----
Files used on the master node dftfe.crc.nd.edu were:
-rw-r--r-- 1 pmehta1 campus   37475 Feb 26 00:16 /tmp/gamess.dat
-rw-r--r-- 1 pmehta1 campus     142 Feb 26 00:15 /tmp/gamess.F05
-rw-r--r-- 1 pmehta1 campus 2160288 Feb 26 00:15 /tmp/gamess.F08
-rw-r--r-- 1 pmehta1 campus 1220440 Feb 26 00:16 /tmp/gamess.F10
Thu Feb 26 00:16:04 EST 2015
0.237u 0.183s 0:08.63 4.7%	0+0k 0+112io 0pf+0w
