 running on    8 total cores
 distrk:  each k-point on    8 cores,    1 groups
 distr:  one band on    1 cores,    8 groups
 using from now: INCAR     
 vasp.5.4.1 05Feb16 (build Feb 08 2018 09:21:51) complex                        
  
 POSCAR found :  2 types and       2 ions

 ----------------------------------------------------------------------------- 
|                                                                             |
|           W    W    AA    RRRRR   N    N  II  N    N   GGGG   !!!           |
|           W    W   A  A   R    R  NN   N  II  NN   N  G    G  !!!           |
|           W    W  A    A  R    R  N N  N  II  N N  N  G       !!!           |
|           W WW W  AAAAAA  RRRRR   N  N N  II  N  N N  G  GGG   !            |
|           WW  WW  A    A  R   R   N   NN  II  N   NN  G    G                |
|           W    W  A    A  R    R  N    N  II  N    N   GGGG   !!!           |
|                                                                             |
|      For optimal performance we recommend to set                            |
|        NCORE= 4 - approx SQRT( number of cores)                             |
|      NCORE specifies how many cores store one orbital (NPAR=cpu/NCORE).     |
|      This setting can  greatly improve the performance of VASP for DFT.     |
|      The default, NPAR=number of cores might be grossly inefficient         |
|      on modern multi-core architectures or massively parallel machines.     |
|      Do your own testing !!!!                                               |
|      Unfortunately you need to use the default for GW and RPA calculations. |
|      (for HF NCORE is supported but not extensively tested yet)             |
|                                                                             |
 ----------------------------------------------------------------------------- 

 LDA part: xc-table for Pade appr. of Perdew
 POSCAR, INCAR and KPOINTS ok, starting setup
 WARNING: small aliasing (wrap around) errors must be expected
 FFT: planning ...
 WAVECAR not read
 entering main loop
       N       E                     dE             d eps       ncg     rms          rms(c)
DAV:   1     0.567898521002E+02    0.56790E+02   -0.22719E+03    40   0.249E+02
DAV:   2    -0.942986613821E+01   -0.66220E+02   -0.65614E+02    48   0.880E+01
DAV:   3    -0.152426477206E+02   -0.58128E+01   -0.58042E+01    64   0.307E+01
DAV:   4    -0.152586738089E+02   -0.16026E-01   -0.16025E-01    56   0.169E+00
DAV:   5    -0.152586876309E+02   -0.13822E-04   -0.13822E-04    56   0.522E-02    0.617E+00
DAV:   6    -0.147913326995E+02    0.46735E+00   -0.36472E+00    40   0.698E+00    0.356E+00
DAV:   7    -0.146821659618E+02    0.10917E+00   -0.74396E-01    48   0.295E+00    0.190E+00
DAV:   8    -0.146472291841E+02    0.34937E-01   -0.12684E-01    40   0.155E+00    0.357E-01
DAV:   9    -0.146472324549E+02   -0.32708E-05   -0.50681E-03    32   0.307E-01    0.127E-01
DAV:  10    -0.146479926909E+02   -0.76024E-03   -0.11664E-03    32   0.158E-01    0.305E-02
DAV:  11    -0.146493223106E+02   -0.13296E-02   -0.28606E-04    32   0.585E-02    0.179E-02
DAV:  12    -0.146500990896E+02   -0.77678E-03   -0.81472E-05    32   0.331E-02    0.108E-02
DAV:  13    -0.146510570675E+02   -0.95798E-03   -0.10042E-04    32   0.327E-02    0.558E-03
DAV:  14    -0.146512726884E+02   -0.21562E-03   -0.87076E-06    32   0.106E-02    0.303E-03
DAV:  15    -0.146514571028E+02   -0.18441E-03   -0.11174E-05    32   0.102E-02    0.192E-03
DAV:  16    -0.146515004221E+02   -0.43319E-04   -0.21661E-06    32   0.570E-03
   1 F= -.14651500E+02 E0= -.14653433E+02  d E =0.579791E-02
Running "mpirun -np 8 vasp"
