   2   2   0   0
  0.5000000E+03  0.1000000E-08  0.1000000E-08  0.1000000E-08  0.5000000E-15
  1.000000000000000E-004
  CAR 
 unknown system                          
      4.07481781    -29.91261747  301     -8.95621975      1.00000000
    -29.913  0.0000E+00  0.0000E+00
    -29.799  0.0000E+00  0.0000E+00
    -29.686  0.0000E+00  0.0000E+00
    -29.573  0.0000E+00  0.0000E+00
    -29.459  0.0000E+00  0.0000E+00
    -29.346  0.0000E+00  0.0000E+00
    -29.233 -0.1346E-30 -0.1525E-31
    -29.120 -0.1057E-22 -0.1197E-23
    -29.006 -0.6225E-16 -0.7052E-17
    -28.893 -0.2629E-10 -0.2978E-11
    -28.780 -0.8235E-06 -0.9330E-07
    -28.666 -0.1774E-02 -0.2011E-03
    -28.553 -0.2180E+00 -0.2490E-01
    -28.440  0.8028E+00  0.6605E-01
    -28.327  0.1386E+02  0.1636E+01
    -28.213  0.3665E+01  0.2051E+01
    -28.100 -0.4433E+00  0.2001E+01
    -27.987 -0.8898E-02  0.2000E+01
    -27.873 -0.8742E-05  0.2000E+01
    -27.760 -0.5749E-09  0.2000E+01
    -27.647 -0.3920E-14  0.2000E+01
    -27.533  0.0000E+00  0.2000E+01
    -27.420  0.0000E+00  0.2000E+01
    -27.307  0.0000E+00  0.2000E+01
    -27.194  0.0000E+00  0.2000E+01
    -27.080  0.0000E+00  0.2000E+01
    -26.967  0.0000E+00  0.2000E+01
    -26.854  0.0000E+00  0.2000E+01
    -26.740  0.0000E+00  0.2000E+01
    -26.627  0.0000E+00  0.2000E+01
    -26.514  0.0000E+00  0.2000E+01
    -26.401  0.0000E+00  0.2000E+01
    -26.287  0.0000E+00  0.2000E+01
    -26.174  0.0000E+00  0.2000E+01
    -26.061  0.0000E+00  0.2000E+01
    -25.947  0.0000E+00  0.2000E+01
    -25.834  0.0000E+00  0.2000E+01
    -25.721  0.0000E+00  0.2000E+01
    -25.608  0.0000E+00  0.2000E+01
    -25.494  0.0000E+00  0.2000E+01
    -25.381  0.0000E+00  0.2000E+01
    -25.268  0.0000E+00  0.2000E+01
    -25.154  0.0000E+00  0.2000E+01
    -25.041  0.0000E+00  0.2000E+01
    -24.928  0.0000E+00  0.2000E+01
    -24.815  0.0000E+00  0.2000E+01
    -24.701  0.0000E+00  0.2000E+01
    -24.588  0.0000E+00  0.2000E+01
    -24.475  0.0000E+00  0.2000E+01
    -24.361  0.0000E+00  0.2000E+01
    -24.248  0.0000E+00  0.2000E+01
    -24.135  0.0000E+00  0.2000E+01
    -24.021  0.0000E+00  0.2000E+01
    -23.908  0.0000E+00  0.2000E+01
    -23.795  0.0000E+00  0.2000E+01
    -23.682  0.0000E+00  0.2000E+01
    -23.568  0.0000E+00  0.2000E+01
    -23.455  0.0000E+00  0.2000E+01
    -23.342  0.0000E+00  0.2000E+01
    -23.228  0.0000E+00  0.2000E+01
    -23.115  0.0000E+00  0.2000E+01
    -23.002  0.0000E+00  0.2000E+01
    -22.889  0.0000E+00  0.2000E+01
    -22.775  0.0000E+00  0.2000E+01
    -22.662  0.0000E+00  0.2000E+01
    -22.549  0.0000E+00  0.2000E+01
    -22.435  0.0000E+00  0.2000E+01
    -22.322  0.0000E+00  0.2000E+01
    -22.209  0.0000E+00  0.2000E+01
    -22.096  0.0000E+00  0.2000E+01
    -21.982  0.0000E+00  0.2000E+01
    -21.869  0.0000E+00  0.2000E+01
    -21.756  0.0000E+00  0.2000E+01
    -21.642  0.0000E+00  0.2000E+01
    -21.529  0.0000E+00  0.2000E+01
    -21.416  0.0000E+00  0.2000E+01
    -21.302  0.0000E+00  0.2000E+01
    -21.189  0.0000E+00  0.2000E+01
    -21.076  0.0000E+00  0.2000E+01
    -20.963  0.0000E+00  0.2000E+01
    -20.849  0.0000E+00  0.2000E+01
    -20.736  0.0000E+00  0.2000E+01
    -20.623  0.0000E+00  0.2000E+01
    -20.509  0.0000E+00  0.2000E+01
    -20.396  0.0000E+00  0.2000E+01
    -20.283  0.0000E+00  0.2000E+01
    -20.170  0.0000E+00  0.2000E+01
    -20.056  0.0000E+00  0.2000E+01
    -19.943  0.0000E+00  0.2000E+01
    -19.830  0.0000E+00  0.2000E+01
    -19.716  0.0000E+00  0.2000E+01
    -19.603  0.0000E+00  0.2000E+01
    -19.490  0.0000E+00  0.2000E+01
    -19.377  0.0000E+00  0.2000E+01
    -19.263  0.0000E+00  0.2000E+01
    -19.150  0.0000E+00  0.2000E+01
    -19.037  0.0000E+00  0.2000E+01
    -18.923  0.0000E+00  0.2000E+01
    -18.810  0.0000E+00  0.2000E+01
    -18.697  0.0000E+00  0.2000E+01
    -18.583  0.0000E+00  0.2000E+01
    -18.470  0.0000E+00  0.2000E+01
    -18.357  0.0000E+00  0.2000E+01
    -18.244  0.0000E+00  0.2000E+01
    -18.130  0.0000E+00  0.2000E+01
    -18.017  0.0000E+00  0.2000E+01
    -17.904  0.0000E+00  0.2000E+01
    -17.790  0.0000E+00  0.2000E+01
    -17.677  0.0000E+00  0.2000E+01
    -17.564  0.0000E+00  0.2000E+01
    -17.451  0.0000E+00  0.2000E+01
    -17.337  0.0000E+00  0.2000E+01
    -17.224  0.0000E+00  0.2000E+01
    -17.111  0.0000E+00  0.2000E+01
    -16.997  0.0000E+00  0.2000E+01
    -16.884  0.0000E+00  0.2000E+01
    -16.771  0.0000E+00  0.2000E+01
    -16.658  0.0000E+00  0.2000E+01
    -16.544  0.0000E+00  0.2000E+01
    -16.431  0.0000E+00  0.2000E+01
    -16.318  0.0000E+00  0.2000E+01
    -16.204  0.0000E+00  0.2000E+01
    -16.091  0.0000E+00  0.2000E+01
    -15.978  0.0000E+00  0.2000E+01
    -15.864  0.0000E+00  0.2000E+01
    -15.751  0.0000E+00  0.2000E+01
    -15.638  0.0000E+00  0.2000E+01
    -15.525  0.0000E+00  0.2000E+01
    -15.411  0.0000E+00  0.2000E+01
    -15.298  0.0000E+00  0.2000E+01
    -15.185  0.0000E+00  0.2000E+01
    -15.071  0.0000E+00  0.2000E+01
    -14.958  0.0000E+00  0.2000E+01
    -14.845 -0.2169E-29  0.2000E+01
    -14.732 -0.1173E-21  0.2000E+01
    -14.618 -0.4753E-15  0.2000E+01
    -14.505 -0.1375E-09  0.2000E+01
    -14.392 -0.2942E-05  0.2000E+01
    -14.278 -0.4272E-02  0.2000E+01
    -14.165 -0.3304E+00  0.1962E+01
    -14.052  0.2098E+01  0.2200E+01
    -13.939  0.1428E+02  0.3817E+01
    -13.825  0.1935E+01  0.4036E+01
    -13.712 -0.3173E+00  0.4000E+01
    -13.599 -0.3897E-02  0.4000E+01
    -13.485 -0.2572E-05  0.4000E+01
    -13.372 -0.1154E-09  0.4000E+01
    -13.259  0.0000E+00  0.4000E+01
    -13.145  0.0000E+00  0.4000E+01
    -13.032  0.0000E+00  0.4000E+01
    -12.919  0.0000E+00  0.4000E+01
    -12.806  0.0000E+00  0.4000E+01
    -12.692  0.0000E+00  0.4000E+01
    -12.579  0.0000E+00  0.4000E+01
    -12.466  0.0000E+00  0.4000E+01
    -12.352  0.0000E+00  0.4000E+01
    -12.239  0.0000E+00  0.4000E+01
    -12.126  0.0000E+00  0.4000E+01
    -12.013 -0.3220E-29  0.4000E+01
    -11.899 -0.1812E-21  0.4000E+01
    -11.786 -0.7648E-15  0.4000E+01
    -11.673 -0.2305E-09  0.4000E+01
    -11.559 -0.5140E-05  0.4000E+01
    -11.446 -0.7790E-02  0.3999E+01
    -11.333 -0.6344E+00  0.3927E+01
    -11.220  0.3868E+01  0.4365E+01
    -11.106  0.2855E+02  0.7600E+01
    -10.993  0.4198E+01  0.8076E+01
    -10.880 -0.6610E+00  0.8001E+01
    -10.766 -0.8547E-02  0.8000E+01
    -10.653 -0.5888E-05  0.8000E+01
    -10.540 -0.2753E-09  0.8000E+01
    -10.426  0.0000E+00  0.8000E+01
    -10.313  0.0000E+00  0.8000E+01
    -10.200  0.0000E+00  0.8000E+01
    -10.087  0.0000E+00  0.8000E+01
     -9.973  0.0000E+00  0.8000E+01
     -9.860 -0.2727E-27  0.8000E+01
     -9.747 -0.7570E-20  0.8000E+01
     -9.633 -0.1572E-13  0.8000E+01
     -9.520 -0.2310E-08  0.8000E+01
     -9.407 -0.2492E-04  0.8000E+01
     -9.294 -0.1770E-01  0.7998E+01
     -9.180 -0.5440E+00  0.7936E+01
     -9.067  0.5568E+01  0.8567E+01
     -8.954  0.1274E+02  0.1001E+02
     -8.840  0.4799E-01  0.1002E+02
     -8.727 -0.1404E+00  0.1000E+02
     -8.614 -0.7689E-03  0.1000E+02
     -8.501 -0.2514E-06  0.1000E+02
     -8.387 -0.5707E-11  0.1000E+02
     -8.274  0.0000E+00  0.1000E+02
     -8.161  0.0000E+00  0.1000E+02
     -8.047  0.0000E+00  0.1000E+02
     -7.934  0.0000E+00  0.1000E+02
     -7.821  0.0000E+00  0.1000E+02
     -7.707  0.0000E+00  0.1000E+02
     -7.594  0.0000E+00  0.1000E+02
     -7.481  0.0000E+00  0.1000E+02
     -7.368  0.0000E+00  0.1000E+02
     -7.254  0.0000E+00  0.1000E+02
     -7.141  0.0000E+00  0.1000E+02
     -7.028  0.0000E+00  0.1000E+02
     -6.914  0.0000E+00  0.1000E+02
     -6.801  0.0000E+00  0.1000E+02
     -6.688  0.0000E+00  0.1000E+02
     -6.575  0.0000E+00  0.1000E+02
     -6.461  0.0000E+00  0.1000E+02
     -6.348  0.0000E+00  0.1000E+02
     -6.235  0.0000E+00  0.1000E+02
     -6.121  0.0000E+00  0.1000E+02
     -6.008  0.0000E+00  0.1000E+02
     -5.895  0.0000E+00  0.1000E+02
     -5.782  0.0000E+00  0.1000E+02
     -5.668  0.0000E+00  0.1000E+02
     -5.555  0.0000E+00  0.1000E+02
     -5.442  0.0000E+00  0.1000E+02
     -5.328  0.0000E+00  0.1000E+02
     -5.215  0.0000E+00  0.1000E+02
     -5.102  0.0000E+00  0.1000E+02
     -4.988  0.0000E+00  0.1000E+02
     -4.875  0.0000E+00  0.1000E+02
     -4.762  0.0000E+00  0.1000E+02
     -4.649  0.0000E+00  0.1000E+02
     -4.535  0.0000E+00  0.1000E+02
     -4.422  0.0000E+00  0.1000E+02
     -4.309  0.0000E+00  0.1000E+02
     -4.195  0.0000E+00  0.1000E+02
     -4.082  0.0000E+00  0.1000E+02
     -3.969  0.0000E+00  0.1000E+02
     -3.856  0.0000E+00  0.1000E+02
     -3.742  0.0000E+00  0.1000E+02
     -3.629  0.0000E+00  0.1000E+02
     -3.516  0.0000E+00  0.1000E+02
     -3.402 -0.7075E-32  0.1000E+02
     -3.289 -0.8954E-24  0.1000E+02
     -3.176 -0.8511E-17  0.1000E+02
     -3.063 -0.5830E-11  0.1000E+02
     -2.949 -0.2973E-06  0.1000E+02
     -2.836 -0.1057E-02  0.1000E+02
     -2.723 -0.2280E+00  0.9974E+01
     -2.609 -0.3455E+00  0.9935E+01
     -2.496  0.2415E+02  0.1267E+02
     -2.383  0.1292E+02  0.1414E+02
     -2.270 -0.1148E+01  0.1401E+02
     -2.156 -0.4691E-01  0.1400E+02
     -2.043 -0.7724E-04  0.1400E+02
     -1.930 -0.8306E-08  0.1400E+02
     -1.816 -0.6272E-13  0.1400E+02
     -1.703  0.0000E+00  0.1400E+02
     -1.590  0.0000E+00  0.1400E+02
     -1.476  0.0000E+00  0.1400E+02
     -1.363  0.0000E+00  0.1400E+02
     -1.250  0.0000E+00  0.1400E+02
     -1.137  0.0000E+00  0.1400E+02
     -1.023 -0.3094E-26  0.1400E+02
     -0.910 -0.6086E-19  0.1400E+02
     -0.797 -0.8649E-13  0.1400E+02
     -0.683 -0.9260E-08  0.1400E+02
     -0.570 -0.7003E-04  0.1400E+02
     -0.457 -0.3415E-01  0.1400E+02
     -0.344 -0.5903E+00  0.1393E+02
     -0.230  0.7744E+01  0.1481E+02
     -0.117  0.1101E+02  0.1605E+02
     -0.004 -0.3903E+00  0.1601E+02
      0.110 -0.8387E-01  0.1600E+02
      0.223 -0.3093E-03  0.1600E+02
      0.336 -0.7060E-07  0.1600E+02
      0.449 -0.1147E-11  0.1600E+02
      0.563 -0.2691E-08  0.1600E+02
      0.676 -0.2794E-04  0.1600E+02
      0.789 -0.1906E-01  0.1600E+02
      0.903 -0.5632E+00  0.1593E+02
      1.016  0.5074E+01  0.1651E+02
      1.129  0.1702E+02  0.1844E+02
      1.243  0.3000E+02  0.2184E+02
      1.356  0.3535E+02  0.2584E+02
      1.469  0.2018E+02  0.2813E+02
      1.582 -0.9608E+00  0.2802E+02
      1.696 -0.1540E+00  0.2800E+02
      1.809 -0.6761E-03  0.2800E+02
      1.922 -0.1958E-06  0.2800E+02
      2.036 -0.2882E-06  0.2800E+02
      2.149 -0.8549E-03  0.2800E+02
      2.262 -0.1568E+00  0.2798E+02
      2.375 -0.3284E+00  0.2794E+02
      2.489  0.1656E+02  0.2982E+02
      2.602  0.1920E+02  0.3200E+02
      2.715  0.2683E+00  0.3203E+02
      2.829 -0.2344E+00  0.3200E+02
      2.942 -0.1796E-02  0.3200E+02
      3.055 -0.8255E-06  0.3200E+02
      3.168 -0.2630E-10  0.3200E+02
      3.282  0.0000E+00  0.3200E+02
      3.395  0.0000E+00  0.3200E+02
      3.508  0.0000E+00  0.3200E+02
      3.622  0.0000E+00  0.3200E+02
      3.735  0.0000E+00  0.3200E+02
      3.848  0.0000E+00  0.3200E+02
      3.962  0.0000E+00  0.3200E+02
      4.075  0.0000E+00  0.3200E+02
