    2    2    1    1
  0.5000000E+03  0.1000000E-08  0.1000000E-08  0.1000000E-08  0.5000000E-15
  1.000000000000000E-004
  CAR 
 unknown system                          
     10      1     16
 
  0.0000000E+00  0.0000000E+00  0.0000000E+00  0.1000000E+01
    1      -28.367734   1.000000
    2      -13.996048   1.000000
    3      -11.161994   1.000000
    4      -11.161994   1.000000
    5       -9.040408   1.000000
    6       -2.516366   0.000000
    7       -2.516366   0.000000
    8       -0.218743   0.000000
    9        1.040900   0.000000
   10        1.181294   0.000000
   11        1.181294   0.000000
   12        1.296287   0.000000
   13        1.336498   0.000000
   14        1.379107   0.000000
   15        2.460522   0.000000
   16        2.529934   0.000000
