<?xml version="1.0" encoding="ISO-8859-1"?>
<modeling>
 <generator>
  <i name="program" type="string">vasp </i>
  <i name="version" type="string">5.4.1  </i>
  <i name="subversion" type="string">05Feb16 (build Feb 08 2018 09:21:51) complex                          parallel </i>
  <i name="platform" type="string">LinuxIFC </i>
  <i name="date" type="string">2019 10 28 </i>
  <i name="time" type="string">15:46:45 </i>
 </generator>
 <incar>
  <i type="string" name="PREC">normal</i>
  <i name="ENCUT">    350.00000000</i>
  <i type="int" name="ISMEAR">     1</i>
  <i name="SIGMA">      0.10000000</i>
  <i type="logical" name="LWAVE"> F  </i>
  <i type="logical" name="LCHARG"> F  </i>
  <v type="int" name="KPOINT_BSE">    -1     0     0     0</v>
 </incar>
 <kpoints>
  <generation param="Monkhorst-Pack">
   <v type="int" name="divisions">       1        1        1 </v>
   <v name="usershift">      0.00000000       0.00000000       0.00000000 </v>
   <v name="genvec1">      1.00000000       0.00000000       0.00000000 </v>
   <v name="genvec2">      0.00000000       1.00000000       0.00000000 </v>
   <v name="genvec3">      0.00000000       0.00000000       1.00000000 </v>
   <v name="shift">      0.00000000       0.00000000       0.00000000 </v>
  </generation>
  <varray name="kpointlist" >
   <v>       0.00000000       0.00000000       0.00000000 </v>
  </varray>
  <varray name="weights" >
   <v>       1.00000000 </v>
  </varray>
 </kpoints>
 <parameters>
  <separator name="general" >
   <i type="string" name="SYSTEM">unknown system</i>
   <i type="logical" name="LCOMPAT"> F  </i>
  </separator>
  <separator name="electronic" >
   <i type="string" name="PREC">normal</i>
   <i name="ENMAX">    350.00000000</i>
   <i name="ENAUG">    644.87300000</i>
   <i name="EDIFF">      0.00010000</i>
   <i type="int" name="IALGO">    38</i>
   <i type="int" name="IWAVPR">    10</i>
   <i type="int" name="NBANDS">    16</i>
   <i name="NELECT">     10.00000000</i>
   <i type="int" name="TURBO">     0</i>
   <i type="int" name="IRESTART">     0</i>
   <i type="int" name="NREBOOT">     0</i>
   <i type="int" name="NMIN">     0</i>
   <i name="EREF">      0.00000000</i>
   <separator name="electronic smearing" >
    <i type="int" name="ISMEAR">     1</i>
    <i name="SIGMA">      0.10000000</i>
    <i name="KSPACING">      0.50000000</i>
    <i type="logical" name="KGAMMA"> T  </i>
   </separator>
   <separator name="electronic projectors" >
    <i type="logical" name="LREAL"> F  </i>
    <v name="ROPT">      0.00000000      0.00000000</v>
    <i type="int" name="LMAXPAW">  -100</i>
    <i type="int" name="LMAXMIX">     2</i>
    <i type="logical" name="NLSPLINE"> F  </i>
   </separator>
   <separator name="electronic startup" >
    <i type="int" name="ISTART">     0</i>
    <i type="int" name="ICHARG">     2</i>
    <i type="int" name="INIWAV">     1</i>
   </separator>
   <separator name="electronic spin" >
    <i type="int" name="ISPIN">     1</i>
    <i type="logical" name="LNONCOLLINEAR"> F  </i>
    <v name="MAGMOM">      1.00000000      1.00000000</v>
    <i name="NUPDOWN">     -1.00000000</i>
    <i type="logical" name="LSORBIT"> F  </i>
    <v name="SAXIS">      0.00000000      0.00000000      1.00000000</v>
    <i type="logical" name="LSPIRAL"> F  </i>
    <v name="QSPIRAL">      0.00000000      0.00000000      0.00000000</v>
    <i type="logical" name="LZEROZ"> F  </i>
   </separator>
   <separator name="electronic exchange-correlation" >
    <i type="logical" name="LASPH"> F  </i>
    <i type="logical" name="LMETAGGA"> F  </i>
   </separator>
   <separator name="electronic convergence" >
    <i type="int" name="NELM">    60</i>
    <i type="int" name="NELMDL">    -5</i>
    <i type="int" name="NELMIN">     2</i>
    <i name="ENINI">    350.00000000</i>
    <separator name="electronic convergence detail" >
     <i type="logical" name="LDIAG"> T  </i>
     <i type="logical" name="LSUBROT"> F  </i>
     <i name="WEIMIN">      0.00000000</i>
     <i name="EBREAK">      0.00000156</i>
     <i name="DEPER">      0.30000000</i>
     <i type="int" name="NRMM">     4</i>
     <i name="TIME">      0.40000000</i>
    </separator>
   </separator>
   <separator name="electronic mixer" >
    <i name="AMIX">      0.40000000</i>
    <i name="BMIX">      1.00000000</i>
    <i name="AMIN">      0.10000000</i>
    <i name="AMIX_MAG">      1.60000000</i>
    <i name="BMIX_MAG">      1.00000000</i>
    <separator name="electronic mixer details" >
     <i type="int" name="IMIX">     4</i>
     <i type="logical" name="MIXFIRST"> F  </i>
     <i type="int" name="MAXMIX">   -45</i>
     <i name="WC">    100.00000000</i>
     <i type="int" name="INIMIX">     1</i>
     <i type="int" name="MIXPRE">     1</i>
     <i type="int" name="MREMOVE">     5</i>
    </separator>
   </separator>
   <separator name="electronic dipolcorrection" >
    <i type="logical" name="LDIPOL"> F  </i>
    <i type="logical" name="LMONO"> F  </i>
    <i type="int" name="IDIPOL">     0</i>
    <i name="EPSILON">      1.00000000</i>
    <v name="DIPOL">   -100.00000000   -100.00000000   -100.00000000</v>
    <i name="EFIELD">      0.00000000</i>
   </separator>
  </separator>
  <separator name="grids" >
   <i type="int" name="NGX">    48</i>
   <i type="int" name="NGY">    48</i>
   <i type="int" name="NGZ">    48</i>
   <i type="int" name="NGXF">    96</i>
   <i type="int" name="NGYF">    96</i>
   <i type="int" name="NGZF">    96</i>
   <i type="logical" name="ADDGRID"> F  </i>
  </separator>
  <separator name="ionic" >
   <i type="int" name="NSW">     0</i>
   <i type="int" name="IBRION">    -1</i>
   <i type="int" name="ISIF">     2</i>
   <i name="PSTRESS">      0.00000000</i>
   <i name="EDIFFG">      0.00100000</i>
   <i type="int" name="NFREE">     0</i>
   <i name="POTIM">      0.50000000</i>
   <i name="SMASS">     -3.00000000</i>
   <i name="SCALEE">      1.00000000</i>
  </separator>
  <separator name="ionic md" >
   <i name="TEBEG">      0.00010000</i>
   <i name="TEEND">      0.00010000</i>
   <i type="int" name="NBLOCK">     1</i>
   <i type="int" name="KBLOCK">     1</i>
   <i type="int" name="NPACO">   256</i>
   <i name="APACO">     16.00000000</i>
  </separator>
  <separator name="symmetry" >
   <i type="int" name="ISYM">     2</i>
   <i name="SYMPREC">      0.00001000</i>
  </separator>
  <separator name="dos" >
   <i type="logical" name="LORBIT"> F  </i>
   <v name="RWIGS">     -1.00000000     -1.00000000</v>
   <i type="int" name="NEDOS">   301</i>
   <i name="EMIN">     10.00000000</i>
   <i name="EMAX">    -10.00000000</i>
   <i name="EFERMI">      0.00000000</i>
  </separator>
  <separator name="writing" >
   <i type="int" name="NWRITE">     2</i>
   <i type="logical" name="LWAVE"> F  </i>
   <i type="logical" name="LCHARG"> F  </i>
   <i type="logical" name="LPARD"> F  </i>
   <i type="logical" name="LVTOT"> F  </i>
   <i type="logical" name="LVHAR"> F  </i>
   <i type="logical" name="LELF"> F  </i>
   <i type="logical" name="LOPTICS"> F  </i>
   <v name="STM">      0.00000000      0.00000000      0.00000000      0.00000000      0.00000000      0.00000000      0.00000000</v>
  </separator>
  <separator name="performance" >
   <i type="int" name="NPAR">     8</i>
   <i type="int" name="NSIM">     4</i>
   <i type="int" name="NBLK">    -1</i>
   <i type="logical" name="LPLANE"> T  </i>
   <i type="logical" name="LSCALAPACK"> F  </i>
   <i type="logical" name="LSCAAWARE"> F  </i>
   <i type="logical" name="LSCALU"> F  </i>
   <i type="logical" name="LASYNC"> F  </i>
   <i type="logical" name="LORBITALREAL"> F  </i>
  </separator>
  <separator name="miscellaneous" >
   <i type="int" name="IDIOT">     3</i>
   <i type="logical" name="LMUSIC"> F  </i>
   <v name="POMASS">     12.01100000     16.00000000</v>
   <v name="DARWINR">      0.00000000      0.00000000</v>
   <v name="DARWINV">      1.00000000      1.00000000</v>
   <i type="logical" name="LCORR"> T  </i>
  </separator>
  <i type="logical" name="GGA_COMPAT"> T  </i>
  <i type="logical" name="LBERRY"> F  </i>
  <i type="int" name="ICORELEVEL">     0</i>
  <i type="logical" name="LDAU"> F  </i>
  <i type="int" name="I_CONSTRAINED_M">     0</i>
  <separator name="electronic exchange-correlation" >
   <i type="string" name="GGA">--</i>
   <i type="int" name="VOSKOWN">     0</i>
   <i type="logical" name="LHFCALC"> F  </i>
   <i type="string" name="PRECFOCK"></i>
   <i type="logical" name="LSYMGRAD"> F  </i>
   <i type="logical" name="LHFONE"> F  </i>
   <i type="logical" name="LRHFCALC"> F  </i>
   <i type="logical" name="LTHOMAS"> F  </i>
   <i type="logical" name="LMODELHF"> F  </i>
   <i name="ENCUT4O">     -1.00000000</i>
   <i type="int" name="EXXOEP">     0</i>
   <i type="int" name="FOURORBIT">     0</i>
   <i name="AEXX">      0.00000000</i>
   <i name="HFALPHA">      0.00000000</i>
   <i name="MCALPHA">      0.00000000</i>
   <i name="ALDAX">      1.00000000</i>
   <i name="AGGAX">      1.00000000</i>
   <i name="ALDAC">      1.00000000</i>
   <i name="AGGAC">      1.00000000</i>
   <i type="int" name="NKREDX">     1</i>
   <i type="int" name="NKREDY">     1</i>
   <i type="int" name="NKREDZ">     1</i>
   <i type="logical" name="SHIFTRED"> F  </i>
   <i type="logical" name="ODDONLY"> F  </i>
   <i type="logical" name="EVENONLY"> F  </i>
   <i type="int" name="LMAXFOCK">     0</i>
   <i type="int" name="NMAXFOCKAE">     0</i>
   <i type="logical" name="LFOCKAEDFT"> F  </i>
   <i name="HFSCREEN">      0.00000000</i>
   <i name="HFSCREENC">      0.00000000</i>
   <i type="int" name="NBANDSGWLOW">     0</i>
  </separator>
  <separator name="vdW DFT" >
   <i type="logical" name="LUSE_VDW"> F  </i>
   <i name="Zab_VDW">     -0.84910000</i>
   <i name="PARAM1">      0.12340000</i>
   <i name="PARAM2">      1.00000000</i>
   <i name="PARAM3">      0.00000000</i>
  </separator>
  <separator name="model GW" >
   <i type="int" name="MODEL_GW">     0</i>
   <i name="MODEL_EPS0">    300.00000000</i>
   <i name="MODEL_ALPHA">      1.00000000</i>
  </separator>
  <separator name="linear response parameters" >
   <i type="logical" name="LEPSILON"> F  </i>
   <i type="logical" name="LRPA"> F  </i>
   <i type="logical" name="LNABLA"> F  </i>
   <i type="logical" name="LVEL"> F  </i>
   <i type="int" name="KINTER">     0</i>
   <i name="CSHIFT">      0.10000000</i>
   <i name="OMEGAMAX">     -1.00000000</i>
   <i name="DEG_THRESHOLD">      0.00200000</i>
  </separator>
  <separator name="orbital magnetization" >
   <i type="logical" name="NUCIND"> F  </i>
   <v name="MAGPOS">      0.00000000      0.00000000      0.00000000</v>
   <i type="logical" name="LNICSALL"> T  </i>
   <i type="logical" name="ORBITALMAG"> F  </i>
   <i type="logical" name="LMAGBLOCH"> F  </i>
   <i type="logical" name="LCHIMAG"> F  </i>
   <i type="logical" name="LGAUGE"> T  </i>
   <i type="int" name="MAGATOM">     0</i>
   <v name="MAGDIPOL">      0.00000000      0.00000000      0.00000000</v>
   <v name="AVECCONST">      0.00000000      0.00000000      0.00000000</v>
  </separator>
  <separator name="response functions" >
   <i type="logical" name="LADDER"> F  </i>
   <i type="logical" name="LFXC"> F  </i>
   <i type="logical" name="LHARTREE"> T  </i>
   <i type="int" name="IBSE">     0</i>
   <v type="int" name="KPOINT">    -1     0     0     0</v>
   <i type="logical" name="LTCTE"> F  </i>
   <i type="logical" name="LTETE"> F  </i>
   <i type="logical" name="LTRIPLET"> F  </i>
   <i type="logical" name="LFXCEPS"> F  </i>
   <i type="logical" name="LFXHEG"> F  </i>
   <i type="int" name="NATURALO">     0</i>
   <i type="logical" name="L2ORDER"> F  </i>
   <i type="logical" name="LUSEW"> F  </i>
   <i name="ENCUTGW">     -2.00000000</i>
   <i name="ENCUTGWSOFT">     -2.00000000</i>
   <i name="ENCUTLF">     -1.00000000</i>
   <i type="int" name="LMAXMP2">    -1</i>
   <i name="SCISSOR">      0.00000000</i>
   <i type="int" name="NOMEGA">     0</i>
   <i type="int" name="NOMEGAR">     0</i>
   <i type="int" name="NBANDSGW">    -1</i>
   <i type="int" name="NBANDSO">    -1</i>
   <i type="int" name="NBANDSV">    -1</i>
   <i type="int" name="NELM">     1</i>
   <i type="int" name="NELMHF">     1</i>
   <i type="int" name="DIM">     3</i>
   <i type="int" name="ANTIRES">     0</i>
   <i name="OMEGAMAX">    -30.00000000</i>
   <i name="OMEGAMIN">    -30.00000000</i>
   <i name="OMEGATL">   -200.00000000</i>
   <i type="int" name="OMEGAGRID">     0</i>
   <i name="CSHIFT">     -0.10000000</i>
   <i type="logical" name="SELFENERGY"> F  </i>
   <i type="logical" name="LSPECTRAL"> F  </i>
   <i type="logical" name="LSPECTRALGW"> F  </i>
   <i type="logical" name="LSINGLES"> F  </i>
   <i type="logical" name="LFERMIGW"> F  </i>
   <i type="logical" name="ODDONLYGW"> F  </i>
   <i type="logical" name="EVENONLYGW"> F  </i>
   <i type="int" name="NKREDLFX">     1</i>
   <i type="int" name="NKREDLFY">     1</i>
   <i type="int" name="NKREDLFZ">     1</i>
   <i type="int" name="MAXMEM">  1800</i>
   <i type="int" name="TELESCOPE">     0</i>
   <i type="int" name="TAUPAR">     1</i>
   <i type="int" name="OMEGAPAR">    -1</i>
   <i name="LAMBDA">      1.00000000</i>
  </separator>
  <separator name="External order field" >
   <i name="OFIELD_KAPPA">      0.00000000</i>
   <v name="OFIELD_K">      0.00000000      0.00000000      0.00000000</v>
   <i name="OFIELD_Q6_NEAR">      0.00000000</i>
   <i name="OFIELD_Q6_FAR">      0.00000000</i>
   <i name="OFIELD_A">      0.00000000</i>
  </separator>
 </parameters>
 <atominfo>
  <atoms>       2 </atoms>
  <types>       2 </types>
  <array name="atoms" >
   <dimension dim="1">ion</dimension>
   <field type="string">element</field>
   <field type="int">atomtype</field>
   <set>
    <rc><c>C </c><c>   1</c></rc>
    <rc><c>O </c><c>   2</c></rc>
   </set>
  </array>
  <array name="atomtypes" >
   <dimension dim="1">type</dimension>
   <field type="int">atomspertype</field>
   <field type="string">element</field>
   <field>mass</field>
   <field>valence</field>
   <field type="string">pseudopotential</field>
   <set>
    <rc><c>   1</c><c>C </c><c>     12.01100000</c><c>      4.00000000</c><c>  PAW_PBE C 08Apr2002                   </c></rc>
    <rc><c>   1</c><c>O </c><c>     16.00000000</c><c>      6.00000000</c><c>  PAW_PBE O 08Apr2002                   </c></rc>
   </set>
  </array>
 </atominfo>
 <structure name="initialpos" >
  <crystal>
   <varray name="basis" >
    <v>      10.00000000       0.00000000       0.00000000 </v>
    <v>       0.00000000      10.00000000       0.00000000 </v>
    <v>       0.00000000       0.00000000      10.00000000 </v>
   </varray>
   <i name="volume">   1000.00000000 </i>
   <varray name="rec_basis" >
    <v>       0.10000000       0.00000000       0.00000000 </v>
    <v>       0.00000000       0.10000000       0.00000000 </v>
    <v>       0.00000000       0.00000000       0.10000000 </v>
   </varray>
  </crystal>
  <varray name="positions" >
   <v>       0.44000000       0.50000000       0.50000000 </v>
   <v>       0.56000000       0.50000000       0.50000000 </v>
  </varray>
 </structure>
 <calculation>
  <scstep>
   <time name="dav">    0.20    0.20</time>
   <time name="total">    0.38    0.38</time>
   <energy>
    <i name="alphaZ">      0.43695755 </i>
    <i name="ewald">     84.77797003 </i>
    <i name="hartreedc">   -552.03476751 </i>
    <i name="XCdc">     38.95235091 </i>
    <i name="pawpsdc">    455.07152327 </i>
    <i name="pawaedc">   -457.43959975 </i>
    <i name="eentropy">      0.00579791 </i>
    <i name="bandstr">    -92.05161077 </i>
    <i name="atom">    579.07123046 </i>
    <i name="e_fr_energy">     56.78985210 </i>
    <i name="e_wo_entrp">     56.78405419 </i>
    <i name="e_0_energy">     56.78791947 </i>
   </energy>
  </scstep>
  <scstep>
   <time name="dav">    0.21    0.21</time>
   <time name="total">    0.22    0.22</time>
   <energy>
    <i name="e_fr_energy">     -9.42986614 </i>
    <i name="e_wo_entrp">     -9.43566404 </i>
    <i name="e_0_energy">     -9.43179877 </i>
   </energy>
  </scstep>
  <scstep>
   <time name="dav">    0.27    0.27</time>
   <time name="total">    0.28    0.28</time>
   <energy>
    <i name="e_fr_energy">    -15.24264772 </i>
    <i name="e_wo_entrp">    -15.24844563 </i>
    <i name="e_0_energy">    -15.24458036 </i>
   </energy>
  </scstep>
  <scstep>
   <time name="dav">    0.24    0.24</time>
   <time name="total">    0.25    0.25</time>
   <energy>
    <i name="e_fr_energy">    -15.25867381 </i>
    <i name="e_wo_entrp">    -15.26447171 </i>
    <i name="e_0_energy">    -15.26060644 </i>
   </energy>
  </scstep>
  <scstep>
   <time name="dav">    0.28    0.28</time>
   <time name="total">    0.35    0.35</time>
   <energy>
    <i name="e_fr_energy">    -15.25868763 </i>
    <i name="e_wo_entrp">    -15.26448554 </i>
    <i name="e_0_energy">    -15.26062027 </i>
   </energy>
  </scstep>
  <scstep>
   <time name="dav">    0.15    0.15</time>
   <time name="total">    0.35    0.35</time>
   <energy>
    <i name="e_fr_energy">    -14.79133270 </i>
    <i name="e_wo_entrp">    -14.79713060 </i>
    <i name="e_0_energy">    -14.79326533 </i>
   </energy>
  </scstep>
  <scstep>
   <time name="dav">    0.20    0.20</time>
   <time name="total">    0.41    0.41</time>
   <energy>
    <i name="e_fr_energy">    -14.68216596 </i>
    <i name="e_wo_entrp">    -14.68796387 </i>
    <i name="e_0_energy">    -14.68409860 </i>
   </energy>
  </scstep>
  <scstep>
   <time name="dav">    0.19    0.19</time>
   <time name="total">    0.41    0.42</time>
   <energy>
    <i name="e_fr_energy">    -14.64722918 </i>
    <i name="e_wo_entrp">    -14.65302709 </i>
    <i name="e_0_energy">    -14.64916182 </i>
   </energy>
  </scstep>
  <scstep>
   <time name="dav">    0.16    0.16</time>
   <time name="total">    0.37    0.38</time>
   <energy>
    <i name="e_fr_energy">    -14.64723245 </i>
    <i name="e_wo_entrp">    -14.65303036 </i>
    <i name="e_0_energy">    -14.64916509 </i>
   </energy>
  </scstep>
  <scstep>
   <time name="dav">    0.15    0.15</time>
   <time name="total">    0.37    0.37</time>
   <energy>
    <i name="e_fr_energy">    -14.64799269 </i>
    <i name="e_wo_entrp">    -14.65379060 </i>
    <i name="e_0_energy">    -14.64992533 </i>
   </energy>
  </scstep>
  <scstep>
   <time name="dav">    0.13    0.13</time>
   <time name="total">    0.36    0.36</time>
   <energy>
    <i name="e_fr_energy">    -14.64932231 </i>
    <i name="e_wo_entrp">    -14.65512022 </i>
    <i name="e_0_energy">    -14.65125495 </i>
   </energy>
  </scstep>
  <scstep>
   <time name="dav">    0.13    0.13</time>
   <time name="total">    0.32    0.33</time>
   <energy>
    <i name="e_fr_energy">    -14.65009909 </i>
    <i name="e_wo_entrp">    -14.65589699 </i>
    <i name="e_0_energy">    -14.65203172 </i>
   </energy>
  </scstep>
  <scstep>
   <time name="dav">    0.16    0.16</time>
   <time name="total">    0.38    0.39</time>
   <energy>
    <i name="e_fr_energy">    -14.65105707 </i>
    <i name="e_wo_entrp">    -14.65685497 </i>
    <i name="e_0_energy">    -14.65298970 </i>
   </energy>
  </scstep>
  <scstep>
   <time name="dav">    0.15    0.15</time>
   <time name="total">    0.36    0.36</time>
   <energy>
    <i name="e_fr_energy">    -14.65127269 </i>
    <i name="e_wo_entrp">    -14.65707059 </i>
    <i name="e_0_energy">    -14.65320532 </i>
   </energy>
  </scstep>
  <scstep>
   <time name="dav">    0.15    0.15</time>
   <time name="total">    0.36    0.36</time>
   <energy>
    <i name="e_fr_energy">    -14.65145710 </i>
    <i name="e_wo_entrp">    -14.65725501 </i>
    <i name="e_0_energy">    -14.65338974 </i>
   </energy>
  </scstep>
  <scstep>
   <time name="dav">    0.14    0.14</time>
   <time name="total">    0.29    0.29</time>
   <energy>
    <i name="alphaZ">      0.43695755 </i>
    <i name="ewald">     84.77797003 </i>
    <i name="hartreedc">   -569.17774809 </i>
    <i name="XCdc">     39.96945837 </i>
    <i name="pawpsdc">    788.97093973 </i>
    <i name="pawaedc">   -791.24974957 </i>
    <i name="eentropy">      0.00579791 </i>
    <i name="bandstr">   -147.45635681 </i>
    <i name="atom">    579.07123046 </i>
    <i name="e_fr_energy">    -14.65150042 </i>
    <i name="e_wo_entrp">    -14.65729833 </i>
    <i name="e_0_energy">    -14.65343306 </i>
   </energy>
  </scstep>
  <structure>
   <crystal>
    <varray name="basis" >
     <v>      10.00000000       0.00000000       0.00000000 </v>
     <v>       0.00000000      10.00000000       0.00000000 </v>
     <v>       0.00000000       0.00000000      10.00000000 </v>
    </varray>
    <i name="volume">   1000.00000000 </i>
    <varray name="rec_basis" >
     <v>       0.10000000       0.00000000       0.00000000 </v>
     <v>       0.00000000       0.10000000       0.00000000 </v>
     <v>       0.00000000       0.00000000       0.10000000 </v>
    </varray>
   </crystal>
   <varray name="positions" >
    <v>       0.44000000       0.50000000       0.50000000 </v>
    <v>       0.56000000       0.50000000       0.50000000 </v>
   </varray>
  </structure>
  <varray name="forces" >
   <v>       5.17515789       0.00000000      -0.00000000 </v>
   <v>      -5.17515789       0.00000000       0.00000000 </v>
  </varray>
  <varray name="stress" >
   <v>     -13.87765531      -0.00000000       0.00000000 </v>
   <v>       0.00000000      -3.76408193       0.00000000 </v>
   <v>       0.00000000       0.00000000      -3.76408193 </v>
  </varray>
  <energy>
   <i name="e_fr_energy">    -14.65150042 </i>
   <i name="e_wo_entrp">    -14.65343306 </i>
   <i name="e_0_energy">      0.00579791 </i>
  </energy>
  <time name="totalsc">    5.97    6.03</time>
  <eigenvalues>
   <array>
    <dimension dim="1">band</dimension>
    <dimension dim="2">kpoint</dimension>
    <dimension dim="3">spin</dimension>
    <field>eigene</field>
    <field>occ</field>
    <set>
     <set comment="spin 1">
      <set comment="kpoint 1">
       <r>  -28.3677    1.0000 </r>
       <r>  -13.9960    1.0000 </r>
       <r>  -11.1620    1.0000 </r>
       <r>  -11.1620    1.0000 </r>
       <r>   -9.0404    1.0000 </r>
       <r>   -2.5164    0.0000 </r>
       <r>   -2.5164    0.0000 </r>
       <r>   -0.2187    0.0000 </r>
       <r>    1.0409    0.0000 </r>
       <r>    1.1813    0.0000 </r>
       <r>    1.1813    0.0000 </r>
       <r>    1.2963    0.0000 </r>
       <r>    1.3365    0.0000 </r>
       <r>    1.3791    0.0000 </r>
       <r>    2.4605    0.0000 </r>
       <r>    2.5299    0.0000 </r>
      </set>
     </set>
    </set>
   </array>
  </eigenvalues>
  <separator name="orbital magnetization" >
   <v name="MAGDIPOLOUT">      0.00000000      0.00000000      0.00000000</v>
  </separator>
  <dos>
   <i name="efermi">     -8.95621975 </i>
   <total>
    <array>
     <dimension dim="1">gridpoints</dimension>
     <dimension dim="2">spin</dimension>
     <field>energy</field>
     <field>total</field>
     <field>integrated</field>
     <set>
      <set comment="spin 1">
       <r>   -29.9126     0.0000     0.0000 </r>
       <r>   -29.7993     0.0000     0.0000 </r>
       <r>   -29.6860     0.0000     0.0000 </r>
       <r>   -29.5727     0.0000     0.0000 </r>
       <r>   -29.4595     0.0000     0.0000 </r>
       <r>   -29.3462     0.0000     0.0000 </r>
       <r>   -29.2329    -0.0000    -0.0000 </r>
       <r>   -29.1196    -0.0000    -0.0000 </r>
       <r>   -29.0063    -0.0000    -0.0000 </r>
       <r>   -28.8930    -0.0000    -0.0000 </r>
       <r>   -28.7797    -0.0000    -0.0000 </r>
       <r>   -28.6664    -0.0018    -0.0002 </r>
       <r>   -28.5531    -0.2180    -0.0249 </r>
       <r>   -28.4398     0.8028     0.0661 </r>
       <r>   -28.3265    13.8575     1.6360 </r>
       <r>   -28.2132     3.6652     2.0512 </r>
       <r>   -28.1000    -0.4433     2.0010 </r>
       <r>   -27.9867    -0.0089     2.0000 </r>
       <r>   -27.8734    -0.0000     2.0000 </r>
       <r>   -27.7601    -0.0000     2.0000 </r>
       <r>   -27.6468    -0.0000     2.0000 </r>
       <r>   -27.5335     0.0000     2.0000 </r>
       <r>   -27.4202     0.0000     2.0000 </r>
       <r>   -27.3069     0.0000     2.0000 </r>
       <r>   -27.1936     0.0000     2.0000 </r>
       <r>   -27.0803     0.0000     2.0000 </r>
       <r>   -26.9670     0.0000     2.0000 </r>
       <r>   -26.8537     0.0000     2.0000 </r>
       <r>   -26.7405     0.0000     2.0000 </r>
       <r>   -26.6272     0.0000     2.0000 </r>
       <r>   -26.5139     0.0000     2.0000 </r>
       <r>   -26.4006     0.0000     2.0000 </r>
       <r>   -26.2873     0.0000     2.0000 </r>
       <r>   -26.1740     0.0000     2.0000 </r>
       <r>   -26.0607     0.0000     2.0000 </r>
       <r>   -25.9474     0.0000     2.0000 </r>
       <r>   -25.8341     0.0000     2.0000 </r>
       <r>   -25.7208     0.0000     2.0000 </r>
       <r>   -25.6075     0.0000     2.0000 </r>
       <r>   -25.4943     0.0000     2.0000 </r>
       <r>   -25.3810     0.0000     2.0000 </r>
       <r>   -25.2677     0.0000     2.0000 </r>
       <r>   -25.1544     0.0000     2.0000 </r>
       <r>   -25.0411     0.0000     2.0000 </r>
       <r>   -24.9278     0.0000     2.0000 </r>
       <r>   -24.8145     0.0000     2.0000 </r>
       <r>   -24.7012     0.0000     2.0000 </r>
       <r>   -24.5879     0.0000     2.0000 </r>
       <r>   -24.4746     0.0000     2.0000 </r>
       <r>   -24.3613     0.0000     2.0000 </r>
       <r>   -24.2480     0.0000     2.0000 </r>
       <r>   -24.1348     0.0000     2.0000 </r>
       <r>   -24.0215     0.0000     2.0000 </r>
       <r>   -23.9082     0.0000     2.0000 </r>
       <r>   -23.7949     0.0000     2.0000 </r>
       <r>   -23.6816     0.0000     2.0000 </r>
       <r>   -23.5683     0.0000     2.0000 </r>
       <r>   -23.4550     0.0000     2.0000 </r>
       <r>   -23.3417     0.0000     2.0000 </r>
       <r>   -23.2284     0.0000     2.0000 </r>
       <r>   -23.1151     0.0000     2.0000 </r>
       <r>   -23.0018     0.0000     2.0000 </r>
       <r>   -22.8885     0.0000     2.0000 </r>
       <r>   -22.7753     0.0000     2.0000 </r>
       <r>   -22.6620     0.0000     2.0000 </r>
       <r>   -22.5487     0.0000     2.0000 </r>
       <r>   -22.4354     0.0000     2.0000 </r>
       <r>   -22.3221     0.0000     2.0000 </r>
       <r>   -22.2088     0.0000     2.0000 </r>
       <r>   -22.0955     0.0000     2.0000 </r>
       <r>   -21.9822     0.0000     2.0000 </r>
       <r>   -21.8689     0.0000     2.0000 </r>
       <r>   -21.7556     0.0000     2.0000 </r>
       <r>   -21.6423     0.0000     2.0000 </r>
       <r>   -21.5291     0.0000     2.0000 </r>
       <r>   -21.4158     0.0000     2.0000 </r>
       <r>   -21.3025     0.0000     2.0000 </r>
       <r>   -21.1892     0.0000     2.0000 </r>
       <r>   -21.0759     0.0000     2.0000 </r>
       <r>   -20.9626     0.0000     2.0000 </r>
       <r>   -20.8493     0.0000     2.0000 </r>
       <r>   -20.7360     0.0000     2.0000 </r>
       <r>   -20.6227     0.0000     2.0000 </r>
       <r>   -20.5094     0.0000     2.0000 </r>
       <r>   -20.3961     0.0000     2.0000 </r>
       <r>   -20.2828     0.0000     2.0000 </r>
       <r>   -20.1696     0.0000     2.0000 </r>
       <r>   -20.0563     0.0000     2.0000 </r>
       <r>   -19.9430     0.0000     2.0000 </r>
       <r>   -19.8297     0.0000     2.0000 </r>
       <r>   -19.7164     0.0000     2.0000 </r>
       <r>   -19.6031     0.0000     2.0000 </r>
       <r>   -19.4898     0.0000     2.0000 </r>
       <r>   -19.3765     0.0000     2.0000 </r>
       <r>   -19.2632     0.0000     2.0000 </r>
       <r>   -19.1499     0.0000     2.0000 </r>
       <r>   -19.0366     0.0000     2.0000 </r>
       <r>   -18.9233     0.0000     2.0000 </r>
       <r>   -18.8101     0.0000     2.0000 </r>
       <r>   -18.6968     0.0000     2.0000 </r>
       <r>   -18.5835     0.0000     2.0000 </r>
       <r>   -18.4702     0.0000     2.0000 </r>
       <r>   -18.3569     0.0000     2.0000 </r>
       <r>   -18.2436     0.0000     2.0000 </r>
       <r>   -18.1303     0.0000     2.0000 </r>
       <r>   -18.0170     0.0000     2.0000 </r>
       <r>   -17.9037     0.0000     2.0000 </r>
       <r>   -17.7904     0.0000     2.0000 </r>
       <r>   -17.6771     0.0000     2.0000 </r>
       <r>   -17.5638     0.0000     2.0000 </r>
       <r>   -17.4506     0.0000     2.0000 </r>
       <r>   -17.3373     0.0000     2.0000 </r>
       <r>   -17.2240     0.0000     2.0000 </r>
       <r>   -17.1107     0.0000     2.0000 </r>
       <r>   -16.9974     0.0000     2.0000 </r>
       <r>   -16.8841     0.0000     2.0000 </r>
       <r>   -16.7708     0.0000     2.0000 </r>
       <r>   -16.6575     0.0000     2.0000 </r>
       <r>   -16.5442     0.0000     2.0000 </r>
       <r>   -16.4309     0.0000     2.0000 </r>
       <r>   -16.3176     0.0000     2.0000 </r>
       <r>   -16.2044     0.0000     2.0000 </r>
       <r>   -16.0911     0.0000     2.0000 </r>
       <r>   -15.9778     0.0000     2.0000 </r>
       <r>   -15.8645     0.0000     2.0000 </r>
       <r>   -15.7512     0.0000     2.0000 </r>
       <r>   -15.6379     0.0000     2.0000 </r>
       <r>   -15.5246     0.0000     2.0000 </r>
       <r>   -15.4113     0.0000     2.0000 </r>
       <r>   -15.2980     0.0000     2.0000 </r>
       <r>   -15.1847     0.0000     2.0000 </r>
       <r>   -15.0714     0.0000     2.0000 </r>
       <r>   -14.9581     0.0000     2.0000 </r>
       <r>   -14.8449    -0.0000     2.0000 </r>
       <r>   -14.7316    -0.0000     2.0000 </r>
       <r>   -14.6183    -0.0000     2.0000 </r>
       <r>   -14.5050    -0.0000     2.0000 </r>
       <r>   -14.3917    -0.0000     2.0000 </r>
       <r>   -14.2784    -0.0043     1.9995 </r>
       <r>   -14.1651    -0.3304     1.9621 </r>
       <r>   -14.0518     2.0981     2.1998 </r>
       <r>   -13.9385    14.2766     3.8172 </r>
       <r>   -13.8252     1.9347     4.0364 </r>
       <r>   -13.7119    -0.3173     4.0004 </r>
       <r>   -13.5986    -0.0039     4.0000 </r>
       <r>   -13.4854    -0.0000     4.0000 </r>
       <r>   -13.3721    -0.0000     4.0000 </r>
       <r>   -13.2588     0.0000     4.0000 </r>
       <r>   -13.1455     0.0000     4.0000 </r>
       <r>   -13.0322     0.0000     4.0000 </r>
       <r>   -12.9189     0.0000     4.0000 </r>
       <r>   -12.8056     0.0000     4.0000 </r>
       <r>   -12.6923     0.0000     4.0000 </r>
       <r>   -12.5790     0.0000     4.0000 </r>
       <r>   -12.4657     0.0000     4.0000 </r>
       <r>   -12.3524     0.0000     4.0000 </r>
       <r>   -12.2392     0.0000     4.0000 </r>
       <r>   -12.1259     0.0000     4.0000 </r>
       <r>   -12.0126    -0.0000     4.0000 </r>
       <r>   -11.8993    -0.0000     4.0000 </r>
       <r>   -11.7860    -0.0000     4.0000 </r>
       <r>   -11.6727    -0.0000     4.0000 </r>
       <r>   -11.5594    -0.0000     4.0000 </r>
       <r>   -11.4461    -0.0078     3.9991 </r>
       <r>   -11.3328    -0.6344     3.9272 </r>
       <r>   -11.2195     3.8678     4.3654 </r>
       <r>   -11.1062    28.5532     7.6003 </r>
       <r>   -10.9929     4.1979     8.0759 </r>
       <r>   -10.8797    -0.6610     8.0010 </r>
       <r>   -10.7664    -0.0085     8.0000 </r>
       <r>   -10.6531    -0.0000     8.0000 </r>
       <r>   -10.5398    -0.0000     8.0000 </r>
       <r>   -10.4265     0.0000     8.0000 </r>
       <r>   -10.3132     0.0000     8.0000 </r>
       <r>   -10.1999     0.0000     8.0000 </r>
       <r>   -10.0866     0.0000     8.0000 </r>
       <r>    -9.9733     0.0000     8.0000 </r>
       <r>    -9.8600    -0.0000     8.0000 </r>
       <r>    -9.7467    -0.0000     8.0000 </r>
       <r>    -9.6334    -0.0000     8.0000 </r>
       <r>    -9.5202    -0.0000     8.0000 </r>
       <r>    -9.4069    -0.0000     8.0000 </r>
       <r>    -9.2936    -0.0177     7.9980 </r>
       <r>    -9.1803    -0.5440     7.9364 </r>
       <r>    -9.0670     5.5685     8.5672 </r>
       <r>    -8.9537    12.7400    10.0106 </r>
       <r>    -8.8404     0.0480    10.0160 </r>
       <r>    -8.7271    -0.1404    10.0001 </r>
       <r>    -8.6138    -0.0008    10.0000 </r>
       <r>    -8.5005    -0.0000    10.0000 </r>
       <r>    -8.3872    -0.0000    10.0000 </r>
       <r>    -8.2740     0.0000    10.0000 </r>
       <r>    -8.1607     0.0000    10.0000 </r>
       <r>    -8.0474     0.0000    10.0000 </r>
       <r>    -7.9341     0.0000    10.0000 </r>
       <r>    -7.8208     0.0000    10.0000 </r>
       <r>    -7.7075     0.0000    10.0000 </r>
       <r>    -7.5942     0.0000    10.0000 </r>
       <r>    -7.4809     0.0000    10.0000 </r>
       <r>    -7.3676     0.0000    10.0000 </r>
       <r>    -7.2543     0.0000    10.0000 </r>
       <r>    -7.1410     0.0000    10.0000 </r>
       <r>    -7.0277     0.0000    10.0000 </r>
       <r>    -6.9145     0.0000    10.0000 </r>
       <r>    -6.8012     0.0000    10.0000 </r>
       <r>    -6.6879     0.0000    10.0000 </r>
       <r>    -6.5746     0.0000    10.0000 </r>
       <r>    -6.4613     0.0000    10.0000 </r>
       <r>    -6.3480     0.0000    10.0000 </r>
       <r>    -6.2347     0.0000    10.0000 </r>
       <r>    -6.1214     0.0000    10.0000 </r>
       <r>    -6.0081     0.0000    10.0000 </r>
       <r>    -5.8948     0.0000    10.0000 </r>
       <r>    -5.7815     0.0000    10.0000 </r>
       <r>    -5.6682     0.0000    10.0000 </r>
       <r>    -5.5550     0.0000    10.0000 </r>
       <r>    -5.4417     0.0000    10.0000 </r>
       <r>    -5.3284     0.0000    10.0000 </r>
       <r>    -5.2151     0.0000    10.0000 </r>
       <r>    -5.1018     0.0000    10.0000 </r>
       <r>    -4.9885     0.0000    10.0000 </r>
       <r>    -4.8752     0.0000    10.0000 </r>
       <r>    -4.7619     0.0000    10.0000 </r>
       <r>    -4.6486     0.0000    10.0000 </r>
       <r>    -4.5353     0.0000    10.0000 </r>
       <r>    -4.4220     0.0000    10.0000 </r>
       <r>    -4.3087     0.0000    10.0000 </r>
       <r>    -4.1955     0.0000    10.0000 </r>
       <r>    -4.0822     0.0000    10.0000 </r>
       <r>    -3.9689     0.0000    10.0000 </r>
       <r>    -3.8556     0.0000    10.0000 </r>
       <r>    -3.7423     0.0000    10.0000 </r>
       <r>    -3.6290     0.0000    10.0000 </r>
       <r>    -3.5157     0.0000    10.0000 </r>
       <r>    -3.4024    -0.0000    10.0000 </r>
       <r>    -3.2891    -0.0000    10.0000 </r>
       <r>    -3.1758    -0.0000    10.0000 </r>
       <r>    -3.0625    -0.0000    10.0000 </r>
       <r>    -2.9493    -0.0000    10.0000 </r>
       <r>    -2.8360    -0.0011     9.9999 </r>
       <r>    -2.7227    -0.2280     9.9741 </r>
       <r>    -2.6094    -0.3455     9.9349 </r>
       <r>    -2.4961    24.1515    12.6711 </r>
       <r>    -2.3828    12.9248    14.1353 </r>
       <r>    -2.2695    -1.1476    14.0053 </r>
       <r>    -2.1562    -0.0469    14.0000 </r>
       <r>    -2.0429    -0.0001    14.0000 </r>
       <r>    -1.9296    -0.0000    14.0000 </r>
       <r>    -1.8163    -0.0000    14.0000 </r>
       <r>    -1.7030     0.0000    14.0000 </r>
       <r>    -1.5898     0.0000    14.0000 </r>
       <r>    -1.4765     0.0000    14.0000 </r>
       <r>    -1.3632     0.0000    14.0000 </r>
       <r>    -1.2499     0.0000    14.0000 </r>
       <r>    -1.1366     0.0000    14.0000 </r>
       <r>    -1.0233    -0.0000    14.0000 </r>
       <r>    -0.9100    -0.0000    14.0000 </r>
       <r>    -0.7967    -0.0000    14.0000 </r>
       <r>    -0.6834    -0.0000    14.0000 </r>
       <r>    -0.5701    -0.0001    14.0000 </r>
       <r>    -0.4568    -0.0341    13.9961 </r>
       <r>    -0.3435    -0.5903    13.9292 </r>
       <r>    -0.2303     7.7437    14.8065 </r>
       <r>    -0.1170    11.0088    16.0537 </r>
       <r>    -0.0037    -0.3903    16.0095 </r>
       <r>     0.1096    -0.0839    16.0000 </r>
       <r>     0.2229    -0.0003    16.0000 </r>
       <r>     0.3362    -0.0000    16.0000 </r>
       <r>     0.4495    -0.0000    16.0000 </r>
       <r>     0.5628    -0.0000    16.0000 </r>
       <r>     0.6761    -0.0000    16.0000 </r>
       <r>     0.7894    -0.0191    15.9978 </r>
       <r>     0.9027    -0.5632    15.9340 </r>
       <r>     1.0159     5.0738    16.5089 </r>
       <r>     1.1292    17.0244    18.4376 </r>
       <r>     1.2425    29.9957    21.8358 </r>
       <r>     1.3558    35.3468    25.8403 </r>
       <r>     1.4691    20.1786    28.1264 </r>
       <r>     1.5824    -0.9608    28.0175 </r>
       <r>     1.6957    -0.1540    28.0001 </r>
       <r>     1.8090    -0.0007    28.0000 </r>
       <r>     1.9223    -0.0000    28.0000 </r>
       <r>     2.0356    -0.0000    28.0000 </r>
       <r>     2.1489    -0.0009    27.9999 </r>
       <r>     2.2622    -0.1568    27.9821 </r>
       <r>     2.3754    -0.3284    27.9449 </r>
       <r>     2.4887    16.5609    29.8211 </r>
       <r>     2.6020    19.2002    31.9964 </r>
       <r>     2.7153     0.2683    32.0268 </r>
       <r>     2.8286    -0.2344    32.0002 </r>
       <r>     2.9419    -0.0018    32.0000 </r>
       <r>     3.0552    -0.0000    32.0000 </r>
       <r>     3.1685    -0.0000    32.0000 </r>
       <r>     3.2818     0.0000    32.0000 </r>
       <r>     3.3951     0.0000    32.0000 </r>
       <r>     3.5084     0.0000    32.0000 </r>
       <r>     3.6217     0.0000    32.0000 </r>
       <r>     3.7349     0.0000    32.0000 </r>
       <r>     3.8482     0.0000    32.0000 </r>
       <r>     3.9615     0.0000    32.0000 </r>
       <r>     4.0748     0.0000    32.0000 </r>
      </set>
     </set>
    </array>
   </total>
  </dos>
 </calculation>
 <structure name="finalpos" >
  <crystal>
   <varray name="basis" >
    <v>      10.00000000       0.00000000       0.00000000 </v>
    <v>       0.00000000      10.00000000       0.00000000 </v>
    <v>       0.00000000       0.00000000      10.00000000 </v>
   </varray>
   <i name="volume">   1000.00000000 </i>
   <varray name="rec_basis" >
    <v>       0.10000000       0.00000000       0.00000000 </v>
    <v>       0.00000000       0.10000000       0.00000000 </v>
    <v>       0.00000000       0.00000000       0.10000000 </v>
   </varray>
  </crystal>
  <varray name="positions" >
   <v>       0.44000000       0.50000000       0.50000000 </v>
   <v>       0.56000000       0.50000000       0.50000000 </v>
  </varray>
 </structure>
</modeling>
