----- GAMESS execution script 'rungms' -----
This job is running on host dftfe.crc.nd.edu
under operating system Linux at Thu Feb 26 00:15:47 EST 2015
Available scratch disk space (Kbyte units) at beginning of the job is
Filesystem     1K-blocks     Used Available Use% Mounted on
/dev/sda2      147771864 22812668 117452764  17% /
GAMESS temporary binary files will be written to /tmp
GAMESS supplementary output files will be written to /tmp
Copying input file gamess.inp to your run's scratch directory...

 Distributed Data Interface kickoff program.
 Initiating 1 compute processes on 1 nodes to run the following command:
 /opt/crc/gamess/2012R1/gamess/gamess.00.x gamess 

          ******************************************************
          *         GAMESS VERSION =  1 MAY 2012 (R1)          *
          *             FROM IOWA STATE UNIVERSITY             *
          * M.W.SCHMIDT, K.K.BALDRIDGE, J.A.BOATZ, S.T.ELBERT, *
          *   M.S.GORDON, J.H.JENSEN, S.KOSEKI, N.MATSUNAGA,   *
          *          K.A.NGUYEN, S.J.SU, T.L.WINDUS,           *
          *       TOGETHER WITH M.DUPUIS, J.A.MONTGOMERY       *
          *         J.COMPUT.CHEM.  14, 1347-1363(1993)        *
          **************** 64 BIT LINUX VERSION ****************

  SINCE 1993, STUDENTS AND POSTDOCS WORKING AT IOWA STATE UNIVERSITY
  AND ALSO IN THEIR VARIOUS JOBS AFTER LEAVING ISU HAVE MADE IMPORTANT
  CONTRIBUTIONS TO THE CODE:
     IVANA ADAMOVIC, CHRISTINE AIKENS, YURI ALEXEEV, POOJA ARORA,
     ANDREY ASADCHEV, ROB BELL, PRADIPTA BANDYOPADHYAY, JONATHAN BENTZ,
     BRETT BODE, GALINA CHABAN, WEI CHEN, CHEOL HO CHOI, PAUL DAY,
     ALBERT DEFUSCO, TIM DUDLEY, DMITRI FEDOROV, GRAHAM FLETCHER,
     MARK FREITAG, KURT GLAESEMANN, DAN KEMP, GRANT MERRILL,
     NORIYUKI MINEZAWA, JONATHAN MULLIN, TAKESHI NAGATA,
     SEAN NEDD, HEATHER NETZLOFF, BOSILJKA NJEGIC, RYAN OLSON, MIKE PAK,
     JIM SHOEMAKER, LYUDMILA SLIPCHENKO, SAROM SOK, JIE SONG,
     TETSUYA TAKETSUGU, SIMON WEBB, SOOHAENG YOO, FEDERICO ZAHARIEV

  ADDITIONAL CODE HAS BEEN PROVIDED BY COLLABORATORS IN OTHER GROUPS:
     IOWA STATE UNIVERSITY:
          JOE IVANIC, LAIMUTIS BYTAUTAS, KLAUS RUEDENBERG
     UNIVERSITY OF TOKYO: KIMIHIKO HIRAO, TAKAHITO NAKAJIMA,
          TAKAO TSUNEDA, MUNEAKI KAMIYA, SUSUMU YANAGISAWA,
          KIYOSHI YAGI, MAHITO CHIBA, SEIKEN TOKURA, NAOAKI KAWAKAMI
     UNIVERSITY OF AARHUS: FRANK JENSEN
     UNIVERSITY OF IOWA: VISVALDAS KAIRYS, HUI LI
     NATIONAL INST. OF STANDARDS AND TECHNOLOGY: WALT STEVENS, DAVID GARMER
     UNIVERSITY OF PISA: BENEDETTA MENNUCCI, JACOPO TOMASI
     UNIVERSITY OF MEMPHIS: HENRY KURTZ, PRAKASHAN KORAMBATH
     UNIVERSITY OF ALBERTA: TOBY ZENG, MARIUSZ KLOBUKOWSKI
     UNIVERSITY OF NEW ENGLAND: MARK SPACKMAN
     MIE UNIVERSITY: HIROAKI UMEDA
     MICHIGAN STATE UNIVERSITY:
          KAROL KOWALSKI, MARTA WLOCH, JEFFREY GOUR, JESSE LUTZ, PIOTR PIECUCH
     UNIVERSITY OF SILESIA: MONIKA MUSIAL, STANISLAW KUCHARSKI
     FACULTES UNIVERSITAIRES NOTRE-DAME DE LA PAIX:
          OLIVIER QUINET, BENOIT CHAMPAGNE
     UNIVERSITY OF CALIFORNIA - SANTA BARBARA: BERNARD KIRTMAN
     INSTITUTE FOR MOLECULAR SCIENCE:
          KAZUYA ISHIMURA, MICHIO KATOUDA, AND SHIGERU NAGASE
     UNIVERSITY OF NOTRE DAME: DAN CHIPMAN
     KYUSHU UNIVERSITY:
          HARUYUKI NAKANO,
          FENG LONG GU, JACEK KORCHOWIEC, MARCIN MAKOWSKI, AND YURIKO AOKI,
          HIROTOSHI MORI AND EISAKU MIYOSHI
     PENNSYLVANIA STATE UNIVERSITY:
          TZVETELIN IORDANOV, CHET SWALINA, JONATHAN SKONE,
          SHARON HAMMES-SCHIFFER
     WASEDA UNIVERSITY:
          MASATO KOBAYASHI, TOMOKO AKAMA, TSUGUKI TOUMA,
          TAKESHI YOSHIKAWA, YASUHIRO IKABATA, HIROMI NAKAI
     UNIVERSITY OF NEBRASKA:
          PEIFENG SU, DEJUN SI, NANDUN THELLAMUREGE, YALI WANG, HUI LI
     UNIVERSITY OF ZURICH:
          ROBERTO PEVERATI, KIM BALDRIDGE
     N. COPERNICUS UNIVERSITY AND JACKSON STATE UNIVERSITY:
          MARIA BARYSZ

 EXECUTION OF GAMESS BEGUN Thu Feb 26 00:15:47 2015

            ECHO OF THE FIRST FEW INPUT CARDS -
 INPUT CARD> $BASIS GBASIS=PC1 $END                                                         
 INPUT CARD> $CONTRL COORD=ZMT ISPHER=1 RUNTYP=ENERGY DFTTYP=PBE $END                       
 INPUT CARD>                                                                                
 INPUT CARD> $DATA                                                                          
 INPUT CARD>Title                                                                           
 INPUT CARD>Cnv 2                                                                           
 INPUT CARD>                                                                                
 INPUT CARD>S                                                                               
 INPUT CARD>O 1 1.40                                                                        
 INPUT CARD>O 1 1.40 2 140.0                                                                
 INPUT CARD> $END                                                                           
    1000000 WORDS OF MEMORY AVAILABLE

     BASIS OPTIONS
     -------------
     GBASIS=PC1          IGAUSS=       0      POLAR=NONE    
     NDFUNC=       0     NFFUNC=       0     DIFFSP=       F
     NPFUNC=       0      DIFFS=       F     BASNAM=        


     RUN TITLE
     ---------
 Title                                                                           

 THE POINT GROUP OF THE MOLECULE IS CNV     
 THE ORDER OF THE PRINCIPAL AXIS IS     2

 YOUR FULLY SUBSTITUTED Z-MATRIX IS
 S   
 O      1   1.4000000
 O      1   1.4000000  2  140.0000

 THE MOMENTS OF INERTIA ARE (AMU-ANGSTROM**2)
 IXX=     3.666   IYY=    55.366   IZZ=    59.032

 ATOM      ATOMIC                      COORDINATES (BOHR)
           CHARGE         X                   Y                   Z
 S          16.0     0.0000000000        0.0000000000       -0.4525525998
 O           8.0    -2.4860661924        0.0000000000        0.4523014946
 O           8.0     2.4860661924        0.0000000000        0.4523014946

          INTERNUCLEAR DISTANCES (ANGS.)
          ------------------------------

                1 S          2 O          3 O     

   1 S       0.0000000    1.4000000 *  1.4000000 *
   2 O       1.4000000 *  0.0000000    2.6311393 *
   3 O       1.4000000 *  2.6311393 *  0.0000000  

  * ... LESS THAN  3.000


     ATOMIC BASIS SET
     ----------------
 THE CONTRACTED PRIMITIVE FUNCTIONS HAVE BEEN UNNORMALIZED
 THE CONTRACTED BASIS FUNCTIONS ARE NOW NORMALIZED TO UNITY

  SHELL TYPE  PRIMITIVE        EXPONENT          CONTRACTION COEFFICIENT(S)

 S         

      1   S       1         55510.0000000    0.000587229760
      1   S       2          8326.7000000    0.004532413947
      1   S       3          1895.6000000    0.023265261648
      1   S       4           536.7700000    0.089696133027
      1   S       5           174.6700000    0.254098332277
      1   S       6            62.5780000    0.438665087637
      1   S       7            23.5730000    0.314547135094
      1   S       8             5.8908000    0.032727897102

      2   S       9          8326.7000000   -0.000019755715
      2   S      10          1895.6000000   -0.000043822381
      2   S      11           536.7700000   -0.001730264906
      2   S      12           174.6700000   -0.009381263460
      2   S      13            62.5780000   -0.064050766303
      2   S      14            23.5730000   -0.082478179196
      2   S      15             5.8908000    0.478342956889
      2   S      16             2.1852000    0.626896670208

      3   S      17          1895.6000000    0.000016227260
      3   S      18           536.7700000    0.000191135619
      3   S      19           174.6700000    0.001952069674
      3   S      20            62.5780000    0.010578701087
      3   S      21            23.5730000    0.022164934551
      3   S      22             5.8908000   -0.184968323118
      3   S      23             2.1852000   -0.480920750976
      3   S      24             0.4528200    1.243822243872

      4   S      25             0.1620200    1.000000000000

      5   P      26           395.4500000    0.004642761329
      5   P      27            92.8340000    0.036023396489
      5   P      28            29.2660000    0.149058869978
      5   P      29            10.5950000    0.360033266263
      5   P      30             4.0272000    0.455756476221
      5   P      31             1.5484000    0.206167664178

      6   P      32            92.8340000    0.000169901442
      6   P      33            29.2660000   -0.002541839934
      6   P      34            10.5950000   -0.007867614595
      6   P      35             4.0272000   -0.037231009184
      6   P      36             1.5484000    0.161417246830
      6   P      37             0.4613400    0.902230419976

      7   P      38             0.1313100    1.000000000000

      8   D      39             0.5500000    1.000000000000

 O         

     15   S      40          2306.7000000    0.005424388755
     15   S      41           347.1500000    0.040474749465
     15   S      42            78.8900000    0.180219634554
     15   S      43            21.8760000    0.462370311787
     15   S      44             6.6646000    0.454888396263

     16   S      45           347.1500000   -0.000655003786
     16   S      46            78.8900000   -0.005362052952
     16   S      47            21.8760000   -0.074902158894
     16   S      48             6.6646000   -0.181442579655
     16   S      49             1.0669000    1.102006874042

     17   S      50             0.3070000    1.000000000000

     18   P      51            17.0220000    0.068979967443
     18   P      52             3.6838000    0.351985516325
     18   P      53             0.9923400    0.724036547822

     19   P      54             0.2448700    1.000000000000

     20   D      55             1.0000000    1.000000000000

 TOTAL NUMBER OF BASIS SET SHELLS             =   20
 NUMBER OF CARTESIAN GAUSSIAN BASIS FUNCTIONS =   49
 NOTE: THIS RUN WILL RESTRICT THE MO VARIATION SPACE TO SPHERICAL HARMONICS.
 THE NUMBER OF ORBITALS KEPT IN THE VARIATIONAL SPACE WILL BE PRINTED LATER.
 NUMBER OF ELECTRONS                          =   32
 CHARGE OF MOLECULE                           =    0
 SPIN MULTIPLICITY                            =    1
 NUMBER OF OCCUPIED ORBITALS (ALPHA)          =   16
 NUMBER OF OCCUPIED ORBITALS (BETA )          =   16
 TOTAL NUMBER OF ATOMS                        =    3
 THE NUCLEAR REPULSION ENERGY IS      109.6355808060

     LEBEDEV GRID-BASED DFT OPTIONS
     ------------------------------
     DFTTYP=PBE     
     NRAD  =      96     NLEB  =     302
     NRAD0 =      24     NLEB0 =     110
     SWOFF =    5.00E-03 (PURE SCF -> DFT)
     SWITCH=    3.00E-04 (COARSE -> TIGHT GRID)
     THRESH=    0.00E+00 GTHRE=    1.00E+00

 GRIMME'S EMPIRICAL DISPERSION CORRECTION= F

     $CONTRL OPTIONS
     ---------------
 SCFTYP=RHF          RUNTYP=ENERGY       EXETYP=RUN     
 MPLEVL=       0     CITYP =NONE         CCTYP =NONE         VBTYP =NONE    
 DFTTYP=PBE          TDDFT =NONE    
 MULT  =       1     ICHARG=       0     NZVAR =       0     COORD =ZMT     
 PP    =NONE         RELWFN=NONE         LOCAL =NONE         NUMGRD=       F
 ISPHER=       1     NOSYM =       0     MAXIT =      30     UNITS =ANGS    
 PLTORB=       F     MOLPLT=       F     AIMPAC=       F     FRIEND=        
 NPRINT=       7     IREST =       0     GEOM  =INPUT   
 NORMF =       0     NORMP =       0     ITOL  =      20     ICUT  =       9
 INTTYP=BEST         GRDTYP=BEST         QMTTOL= 1.0E-06

     $SYSTEM OPTIONS
     ---------------
  REPLICATED MEMORY=     1000000 WORDS (ON EVERY NODE).
 DISTRIBUTED MEMDDI=           0 MILLION WORDS IN AGGREGATE,
 MEMDDI DISTRIBUTED OVER   1 PROCESSORS IS           0 WORDS/PROCESSOR.
 TOTAL MEMORY REQUESTED ON EACH PROCESSOR=     1000000 WORDS.
 TIMLIM=      525600.00 MINUTES, OR     365.0 DAYS.
 PARALL= F  BALTYP=  DLB     KDIAG=    0  COREFL= F
 MXSEQ2=     300 MXSEQ3=     150

          ----------------
          PROPERTIES INPUT
          ----------------

     MOMENTS            FIELD           POTENTIAL          DENSITY
 IEMOM =       1   IEFLD =       0   IEPOT =       0   IEDEN =       0
 WHERE =COMASS     WHERE =NUCLEI     WHERE =NUCLEI     WHERE =NUCLEI  
 OUTPUT=BOTH       OUTPUT=BOTH       OUTPUT=BOTH       OUTPUT=BOTH    
 IEMINT=       0   IEFINT=       0                     IEDINT=       0
                                                       MORB  =       0
          EXTRAPOLATION IN EFFECT
          DIIS IN EFFECT
 ORBITAL PRINTING OPTION: NPREO=     1    49     2     1

     -------------------------------
     INTEGRAL TRANSFORMATION OPTIONS
     -------------------------------
     NWORD  =            0
     CUTOFF = 1.0E-09     MPTRAN =       0
     DIRTRF =       F     AOINTS =DUP     

          ----------------------
          INTEGRAL INPUT OPTIONS
          ----------------------
 NOPK  =       1 NORDER=       0 SCHWRZ=       F

   --- ENCODED Z MATRIX ---
 COORD  TYPE   I   J   K   L   M   N
    1      1    3   1
    2      1    2   1
    3      2    2   1   3

 THE DETERMINANT OF THE G MATRIX IS 10**(    -4)

 THE DETERMINANT OF THE G MATRIX IS 10**(    -4)
 * * * WARNING * * *
 YOUR B MATRIX HAS A SMALL DETERMINANT.
 THIS SUGGESTS YOU MAY HAVE BADLY CHOSEN COORDINATES.

     ------------------------------------------
     THE POINT GROUP IS CNV, NAXIS= 2, ORDER= 4
     ------------------------------------------

 -- VARIATIONAL SPACE WILL BE RESTRICTED TO PURE SPHERICAL HARMONICS ONLY --
 AFTER EXCLUDING CONTAMINANT COMBINATIONS FROM THE CARTESIAN GAUSSIAN BASIS
 SET, THE NUMBER OF SPHERICAL HARMONICS KEPT IN THE VARIATION SPACE IS   46

     DIMENSIONS OF THE SYMMETRY SUBSPACES ARE
 A1  =   19     A2  =    5     B1  =   14     B2  =    8

 ..... DONE SETTING UP THE RUN .....
 STEP CPU TIME =     0.01 TOTAL CPU TIME =        0.0 (    0.0 MIN)
 TOTAL WALL CLOCK TIME=        0.0 SECONDS, CPU UTILIZATION IS  50.00%

          ********************
          1 ELECTRON INTEGRALS
          ********************
 ...... END OF ONE-ELECTRON INTEGRALS ......
 STEP CPU TIME =     0.00 TOTAL CPU TIME =        0.0 (    0.0 MIN)
 TOTAL WALL CLOCK TIME=        0.0 SECONDS, CPU UTILIZATION IS  50.00%

          -------------
          GUESS OPTIONS
          -------------
          GUESS =HUCKEL            NORB  =       0          NORDER=       0
          MIX   =       F          PRTMO =       F          PUNMO =       F
          TOLZ  = 1.0E-08          TOLE  = 1.0E-05
          SYMDEN=       F          PURIFY=       F

 INITIAL GUESS ORBITALS GENERATED BY HUCKEL   ROUTINE.
 HUCKEL GUESS REQUIRES     21583 WORDS.

 STATISTICS FOR GENERATION OF SYMMETRY ORBITAL -Q- MATRIX
 NUMBER OF CARTESIAN ATOMIC ORBITALS=         49
 NUMBER OF SPHERICAL CONTAMINANTS DROPPED=     3
 NUMBER OF LINEARLY DEPENDENT MOS DROPPED=     0
 TOTAL NUMBER OF MOS IN VARIATION SPACE=      46

 SYMMETRIES FOR INITIAL GUESS ORBITALS FOLLOW.   BOTH SET(S).
    16 ORBITALS ARE OCCUPIED (    7 CORE ORBITALS).
     8=?A1      9=?B1     10=?A1     11=B2      12=A1      13=B1      14=A2  
    15=B1      16=A1      17=B2      18=?A1     19=?B1     20=A1      21=A1  
    22=A1      23=A1      24=A1      25=A1      26=?A1 
 ...... END OF INITIAL ORBITAL SELECTION ......
 STEP CPU TIME =     0.01 TOTAL CPU TIME =        0.0 (    0.0 MIN)
 TOTAL WALL CLOCK TIME=        0.0 SECONDS, CPU UTILIZATION IS  66.67%

                    ----------------------
                    AO INTEGRAL TECHNOLOGY
                    ----------------------
     S,P,L SHELL ROTATED AXIS INTEGRALS, REPROGRAMMED BY
        KAZUYA ISHIMURA (IMS) AND JOSE SIERRA (SYNSTAR).
     S,P,D,L SHELL ROTATED AXIS INTEGRALS PROGRAMMED BY
        KAZUYA ISHIMURA (INSTITUTE FOR MOLECULAR SCIENCE).
     S,P,D,F,G SHELL TO TOTAL QUARTET ANGULAR MOMENTUM SUM 5,
        ERIC PROGRAM BY GRAHAM FLETCHER (ELORET AND NASA ADVANCED
        SUPERCOMPUTING DIVISION, AMES RESEARCH CENTER).
     S,P,D,F,G,L SHELL GENERAL RYS QUADRATURE PROGRAMMED BY
        MICHEL DUPUIS (PACIFIC NORTHWEST NATIONAL LABORATORY).

          --------------------
          2 ELECTRON INTEGRALS
          --------------------

 THE -PK- OPTION IS OFF, THE INTEGRALS ARE NOT IN SUPERMATRIX FORM.
 STORING   15000 INTEGRALS/RECORD ON DISK, USING 12 BYTES/INTEGRAL.
 TWO ELECTRON INTEGRAL EVALUATION REQUIRES   90606 WORDS OF MEMORY.
 II,JST,KST,LST =  1  1  1  1 NREC =         1 INTLOC =    1
 II,JST,KST,LST =  2  1  1  1 NREC =         1 INTLOC =    2
 II,JST,KST,LST =  3  1  1  1 NREC =         1 INTLOC =    7
 II,JST,KST,LST =  4  1  1  1 NREC =         1 INTLOC =   22
 II,JST,KST,LST =  5  1  1  1 NREC =         1 INTLOC =   56
 II,JST,KST,LST =  6  1  1  1 NREC =         1 INTLOC =  125
 II,JST,KST,LST =  7  1  1  1 NREC =         1 INTLOC =  329
 II,JST,KST,LST =  8  1  1  1 NREC =         1 INTLOC =  776
 II,JST,KST,LST =  9  1  1  1 NREC =         1 INTLOC = 2864
 II,JST,KST,LST = 10  1  1  1 NREC =         1 INTLOC = 2864
 II,JST,KST,LST = 11  1  1  1 NREC =         1 INTLOC = 2864
 II,JST,KST,LST = 12  1  1  1 NREC =         1 INTLOC = 2864
 II,JST,KST,LST = 13  1  1  1 NREC =         1 INTLOC = 2864
 II,JST,KST,LST = 14  1  1  1 NREC =         1 INTLOC = 2864
 II,JST,KST,LST = 15  1  1  1 NREC =         1 INTLOC = 2864
 II,JST,KST,LST = 16  1  1  1 NREC =         1 INTLOC = 5119
 II,JST,KST,LST = 17  1  1  1 NREC =         1 INTLOC = 8297
 II,JST,KST,LST = 18  1  1  1 NREC =         1 INTLOC =12731
 II,JST,KST,LST = 19  1  1  1 NREC =         3 INTLOC =  422
 II,JST,KST,LST = 20  1  1  1 NREC =         5 INTLOC = 1539
 TOTAL NUMBER OF NONZERO TWO-ELECTRON INTEGRALS =              176758
         12 INTEGRAL RECORDS WERE STORED ON DISK FILE  8.
  ...... END OF TWO-ELECTRON INTEGRALS .....
 STEP CPU TIME =     0.16 TOTAL CPU TIME =        0.2 (    0.0 MIN)
 TOTAL WALL CLOCK TIME=        0.2 SECONDS, CPU UTILIZATION IS  94.74%

          --------------------------
               R-PBE SCF CALCULATION
          --------------------------

     NUCLEAR ENERGY =       109.6355808060
     MAXIT =   30     NPUNCH=    2
     EXTRAP=T  DAMP=F  SHIFT=F  RSTRCT=F  DIIS=T  DEM=F  SOSCF=F
         DENSITY MATRIX CONVERGENCE THRESHOLD=  1.00E-05
     COARSE -> FINE DFT GRID SWITCH THRESHOLD=  3.00E-04 (SWITCH IN $DFT)
                   HF -> DFT SWITCH THRESHOLD=  5.00E-03 (SWOFF IN $DFT)
     MEMORY REQUIRED FOR RHF ITERS=    183108 WORDS.

 DFT CODE IS SWITCHING FROM THE FINE GRID NRAD= 96,  NLEB=  302
                      TO THE COARSE GRID NRAD0= 24, NLEB0=  110

     EXCHANGE FUNCTIONAL   =PBE       
     CORRELATION FUNCTIONAL=PBE       
     DFT THRESHOLD         =.460E-07
     GRID CHANGE THRESHOLD =.300E-03
 FOR AN EULER-MACLAURIN QUADRATURE USING  96 RADIAL POINTS:
 SMALLEST GAUSSIAN PRIMITIVE EXPONENT=        0.1313100000 OF TYPE -P-
 ON ATOM NUMBER   1 HAS RADIAL NORMALIZATION=  1.000000
  LARGEST GAUSSIAN PRIMITIVE EXPONENT=    55510.0000000000 OF TYPE -S-
 ON ATOM NUMBER   1 HAS RADIAL NORMALIZATION=  0.999999
 DFT IS SWITCHED OFF, PERFORMING PURE SCF UNTIL SWOFF THRESHOLD IS REACHED.

 ITER EX DEM     TOTAL ENERGY        E CHANGE  DENSITY CHANGE    DIIS ERROR
   1  0  0     -546.0079912628  -546.0079912628   0.333162786   1.478191248
          * * *   INITIATING DIIS PROCEDURE   * * *
   2  1  0     -546.8835879827    -0.8755967199   0.476687743   0.245601701
   3  2  0     -546.9938372232    -0.1102492405   0.107986692   0.210242757
   4  3  0     -547.0879669570    -0.0941297337   0.074591947   0.022913467
   5  4  0     -547.0913043876    -0.0033374306   0.051049955   0.009179659
   6  5  0     -547.0921482851    -0.0008438975   0.021362180   0.003785758
   7  6  0     -547.0923029624    -0.0001546773   0.002996973   0.000611465
 CONVERGED TO SWOFF, SO DFT CALCULATION IS NOW SWITCHED ON.
          * * *   INITIATING DIIS PROCEDURE   * * *
   8  7  0     -548.2109382716    -1.1186353092   0.191914863   0.102099981
   9  8  0     -548.2271134414    -0.0161751698   0.155807053   0.068824624
  10  9  0     -548.2230721948     0.0040412467   0.064634433   0.088340002
  11 10  0     -548.2424193700    -0.0193471752   0.013202771   0.015878835
  12 11  0     -548.2428816741    -0.0004623040   0.000800326   0.001003750
  13 12  0     -548.2428831809    -0.0000015068   0.000499276   0.000098764
  14 13  0     -548.2428832328    -0.0000000519   0.000068599   0.000016622
 DFT CODE IS SWITCHING BACK TO THE FINE GRID
          * * *   INITIATING DIIS PROCEDURE   * * *
  15 14  0     -548.2226010880     0.0202821448   0.007236382   0.005552790
  16 15  0     -548.2227298229    -0.0001287349   0.003374168   0.003357207
  17 16  0     -548.2227200448     0.0000097781   0.002817057   0.003950914
  18 17  0     -548.2227476467    -0.0000276018   0.000706609   0.000721241
  19 18  0     -548.2227489618    -0.0000013151   0.000143464   0.000064680
  20 19  0     -548.2227489768    -0.0000000150   0.000011573   0.000005149
  21 20  0     -548.2227489769    -0.0000000001   0.000000595   0.000000368
  22 21  0     -548.2227489769     0.0000000000   0.000000223   0.000000042

          -----------------
          DENSITY CONVERGED
          -----------------
     TIME TO FORM FOCK OPERATORS=       4.3 SECONDS (       0.2 SEC/ITER)
     TIME TO SOLVE SCF EQUATIONS=       0.0 SECONDS (       0.0 SEC/ITER)

 FINAL R-PBE ENERGY IS     -548.2227489769 AFTER  22 ITERATIONS
 DFT EXCHANGE + CORRELATION ENERGY =       -42.6217629084
 TOTAL ELECTRON NUMBER             =        32.0000030209

          ------------
          EIGENVECTORS
          ------------

                      1          2          3          4          5
                  -88.2021   -18.8029   -18.8029    -7.8267    -5.8484
                     A1         B1         A1         A1         B1  
    1  S  1  S    1.002987   0.000000  -0.000046  -0.273993   0.000000
    2  S  1  S   -0.010265   0.000000   0.000048   1.039386   0.000000
    3  S  1  S    0.001923   0.000000  -0.000325   0.041591   0.000000
    4  S  1  S   -0.000472   0.000000   0.010089  -0.009131   0.000000
    5  S  1  X    0.000000  -0.000124   0.000000   0.000000   0.996277
    6  S  1  Y    0.000000   0.000000   0.000000   0.000000   0.000000
    7  S  1  Z    0.000066   0.000000  -0.000007   0.014316   0.000000
    8  S  1  X    0.000000  -0.001426   0.000000   0.000000   0.010066
    9  S  1  Y    0.000000   0.000000   0.000000   0.000000   0.000000
   10  S  1  Z    0.000122   0.000000   0.000820   0.002005   0.000000
   11  S  1  X    0.000000  -0.007259   0.000000   0.000000  -0.000380
   12  S  1  Y    0.000000   0.000000   0.000000   0.000000   0.000000
   13  S  1  Z    0.000035   0.000000   0.003123  -0.000256   0.000000
   14  S  1 XX    0.000247   0.000000   0.000061   0.002267   0.000000
   15  S  1 YY   -0.000142   0.000000  -0.000281  -0.001180   0.000000
   16  S  1 ZZ   -0.000105   0.000000   0.000220  -0.001087   0.000000
   17  S  1 XY    0.000000   0.000000   0.000000   0.000000   0.000000
   18  S  1 XZ    0.000000   0.000061   0.000000   0.000000   0.001528
   19  S  1 YZ    0.000000   0.000000   0.000000   0.000000   0.000000
   20  O  2  S    0.000019   0.703274   0.703263  -0.000160   0.000687
   21  O  2  S    0.000057   0.026327   0.026170   0.000037  -0.000643
   22  O  2  S   -0.000299  -0.014135  -0.013318  -0.001521  -0.000177
   23  O  2  X   -0.000092   0.000994   0.001189  -0.000496  -0.001214
   24  O  2  Y    0.000000   0.000000   0.000000   0.000000   0.000000
   25  O  2  Z    0.000037  -0.000425  -0.000144   0.000193   0.000521
   26  O  2  X   -0.000263  -0.002519  -0.004021  -0.001989   0.000038
   27  O  2  Y    0.000000   0.000000   0.000000   0.000000   0.000000
   28  O  2  Z    0.000113   0.001923   0.000249   0.000975   0.000229
   29  O  2 XX   -0.000133  -0.000087  -0.000438  -0.000244  -0.000657
   30  O  2 YY    0.000090   0.000143   0.000199   0.000211   0.000502
   31  O  2 ZZ    0.000043  -0.000055   0.000239   0.000033   0.000154
   32  O  2 XY    0.000000   0.000000   0.000000   0.000000   0.000000
   33  O  2 XZ    0.000114   0.000282   0.000042   0.000338   0.000743
   34  O  2 YZ    0.000000   0.000000   0.000000   0.000000   0.000000
   35  O  3  S    0.000019  -0.703274   0.703263  -0.000160  -0.000687
   36  O  3  S    0.000057  -0.026327   0.026170   0.000037   0.000643
   37  O  3  S   -0.000299   0.014135  -0.013318  -0.001521   0.000177
   38  O  3  X    0.000092   0.000994  -0.001189   0.000496  -0.001214
   39  O  3  Y    0.000000   0.000000   0.000000   0.000000   0.000000
   40  O  3  Z    0.000037   0.000425  -0.000144   0.000193  -0.000521
   41  O  3  X    0.000263  -0.002519   0.004021   0.001989   0.000038
   42  O  3  Y    0.000000   0.000000   0.000000   0.000000   0.000000
   43  O  3  Z    0.000113  -0.001923   0.000249   0.000975  -0.000229
   44  O  3 XX   -0.000133   0.000087  -0.000438  -0.000244   0.000657
   45  O  3 YY    0.000090  -0.000143   0.000199   0.000211  -0.000502
   46  O  3 ZZ    0.000043   0.000055   0.000239   0.000033  -0.000154
   47  O  3 XY    0.000000   0.000000   0.000000   0.000000   0.000000
   48  O  3 XZ   -0.000114   0.000282  -0.000042  -0.000338   0.000743
   49  O  3 YZ    0.000000   0.000000   0.000000   0.000000   0.000000

                      6          7          8          9         10
                   -5.8461    -5.8403    -1.0812    -1.0046    -0.5638
                     B2         A1         A1         B1         A1  
    1  S  1  S    0.000000   0.004093   0.053672   0.000000   0.060431
    2  S  1  S    0.000000  -0.015449  -0.156162   0.000000  -0.161893
    3  S  1  S    0.000000   0.000385   0.308837   0.000000   0.394382
    4  S  1  S    0.000000  -0.001233   0.126158   0.000000   0.313033
    5  S  1  X    0.000000   0.000000   0.000000   0.152494   0.000000
    6  S  1  Y    0.996822   0.000000   0.000000   0.000000   0.000000
    7  S  1  Z    0.000000   0.996770  -0.052500   0.000000   0.017028
    8  S  1  X    0.000000   0.000000   0.000000  -0.285856   0.000000
    9  S  1  Y    0.009129   0.000000   0.000000   0.000000   0.000000
   10  S  1  Z    0.000000   0.008771   0.099805   0.000000  -0.027520
   11  S  1  X    0.000000   0.000000   0.000000  -0.008942   0.000000
   12  S  1  Y   -0.000245   0.000000   0.000000   0.000000   0.000000
   13  S  1  Z    0.000000  -0.000323  -0.003065   0.000000  -0.045285
   14  S  1 XX    0.000000  -0.000850   0.066848   0.000000  -0.021783
   15  S  1 YY    0.000000  -0.000416  -0.039931   0.000000   0.019717
   16  S  1 ZZ    0.000000   0.001266  -0.026917   0.000000   0.002066
   17  S  1 XY    0.000000   0.000000   0.000000   0.000000   0.000000
   18  S  1 XZ    0.000000   0.000000   0.000000  -0.065212   0.000000
   19  S  1 YZ    0.000970   0.000000   0.000000   0.000000   0.000000
   20  O  2  S    0.000000  -0.000263  -0.122932  -0.143391   0.105932
   21  O  2  S    0.000000   0.000166   0.242021   0.286124  -0.217918
   22  O  2  S    0.000000   0.000806   0.257616   0.319172  -0.364398
   23  O  2  X    0.000000   0.000644   0.121674   0.115926   0.199600
   24  O  2  Y    0.000145   0.000000   0.000000   0.000000   0.000000
   25  O  2  Z    0.000000  -0.000104  -0.035734  -0.040600  -0.084952
   26  O  2  X    0.000000   0.000338   0.042104   0.031496   0.101742
   27  O  2  Y   -0.000055   0.000000   0.000000   0.000000   0.000000
   28  O  2  Z    0.000000  -0.000223  -0.005764  -0.015452  -0.036474
   29  O  2 XX    0.000000   0.000468   0.014161   0.007726   0.010195
   30  O  2 YY    0.000000  -0.000200  -0.005930  -0.004506  -0.007456
   31  O  2 ZZ    0.000000  -0.000268  -0.008231  -0.003220  -0.002739
   32  O  2 XY    0.000203   0.000000   0.000000   0.000000   0.000000
   33  O  2 XZ    0.000000  -0.000143  -0.004231  -0.007899  -0.008586
   34  O  2 YZ   -0.000113   0.000000   0.000000   0.000000   0.000000
   35  O  3  S    0.000000  -0.000263  -0.122932   0.143391   0.105932
   36  O  3  S    0.000000   0.000166   0.242021  -0.286124  -0.217918
   37  O  3  S    0.000000   0.000806   0.257616  -0.319172  -0.364398
   38  O  3  X    0.000000  -0.000644  -0.121674   0.115926  -0.199600
   39  O  3  Y    0.000145   0.000000   0.000000   0.000000   0.000000
   40  O  3  Z    0.000000  -0.000104  -0.035734   0.040600  -0.084952
   41  O  3  X    0.000000  -0.000338  -0.042104   0.031496  -0.101742
   42  O  3  Y   -0.000055   0.000000   0.000000   0.000000   0.000000
   43  O  3  Z    0.000000  -0.000223  -0.005764   0.015452  -0.036474
   44  O  3 XX    0.000000   0.000468   0.014161  -0.007726   0.010195
   45  O  3 YY    0.000000  -0.000200  -0.005930   0.004506  -0.007456
   46  O  3 ZZ    0.000000  -0.000268  -0.008231   0.003220  -0.002739
   47  O  3 XY   -0.000203   0.000000   0.000000   0.000000   0.000000
   48  O  3 XZ    0.000000   0.000143   0.004231  -0.007899   0.008586
   49  O  3 YZ   -0.000113   0.000000   0.000000   0.000000   0.000000

                     11         12         13         14         15
                   -0.4613    -0.4512    -0.4479    -0.3560    -0.3413
                     B2         A1         B1         A2         B1  
    1  S  1  S    0.000000  -0.008036   0.000000   0.000000   0.000000
    2  S  1  S    0.000000   0.032539   0.000000   0.000000   0.000000
    3  S  1  S    0.000000  -0.038420   0.000000   0.000000   0.000000
    4  S  1  S    0.000000  -0.150085   0.000000   0.000000   0.000000
    5  S  1  X    0.000000   0.000000  -0.160688   0.000000  -0.012364
    6  S  1  Y   -0.200996   0.000000   0.000000   0.000000   0.000000
    7  S  1  Z    0.000000  -0.191990   0.000000   0.000000   0.000000
    8  S  1  X    0.000000   0.000000   0.377074   0.000000   0.020481
    9  S  1  Y    0.463580   0.000000   0.000000   0.000000   0.000000
   10  S  1  Z    0.000000   0.438671   0.000000   0.000000   0.000000
   11  S  1  X    0.000000   0.000000  -0.008800   0.000000   0.072947
   12  S  1  Y    0.218547   0.000000   0.000000   0.000000   0.000000
   13  S  1  Z    0.000000   0.191124   0.000000   0.000000   0.000000
   14  S  1 XX    0.000000  -0.061764   0.000000   0.000000   0.000000
   15  S  1 YY    0.000000  -0.010143   0.000000   0.000000   0.000000
   16  S  1 ZZ    0.000000   0.071907   0.000000   0.000000   0.000000
   17  S  1 XY    0.000000   0.000000   0.000000  -0.147620   0.000000
   18  S  1 XZ    0.000000   0.000000   0.033044   0.000000  -0.140613
   19  S  1 YZ    0.049188   0.000000   0.000000   0.000000   0.000000
   20  O  2  S    0.000000   0.015994  -0.068613   0.000000   0.001449
   21  O  2  S    0.000000  -0.033693   0.140538   0.000000  -0.004931
   22  O  2  S    0.000000  -0.050123   0.251848   0.000000   0.007273
   23  O  2  X    0.000000   0.189049  -0.344591   0.000000   0.228286
   24  O  2  Y    0.320099   0.000000   0.000000   0.459278   0.000000
   25  O  2  Z    0.000000   0.266996   0.178301   0.000000   0.402519
   26  O  2  X    0.000000   0.122741  -0.181280   0.000000   0.146446
   27  O  2  Y    0.184506   0.000000   0.000000   0.315723   0.000000
   28  O  2  Z    0.000000   0.154127   0.108748   0.000000   0.277114
   29  O  2 XX    0.000000   0.019160  -0.010540   0.000000   0.010459
   30  O  2 YY    0.000000  -0.004974   0.008873   0.000000   0.000700
   31  O  2 ZZ    0.000000  -0.014186   0.001667   0.000000  -0.011159
   32  O  2 XY    0.024597   0.000000   0.000000   0.020257   0.000000
   33  O  2 XZ    0.000000   0.014125   0.013684   0.000000   0.018845
   34  O  2 YZ   -0.007584   0.000000   0.000000  -0.006553   0.000000
   35  O  3  S    0.000000   0.015994   0.068613   0.000000  -0.001449
   36  O  3  S    0.000000  -0.033693  -0.140538   0.000000   0.004931
   37  O  3  S    0.000000  -0.050123  -0.251848   0.000000  -0.007273
   38  O  3  X    0.000000  -0.189049  -0.344591   0.000000   0.228286
   39  O  3  Y    0.320099   0.000000   0.000000  -0.459278   0.000000
   40  O  3  Z    0.000000   0.266996  -0.178301   0.000000  -0.402519
   41  O  3  X    0.000000  -0.122741  -0.181280   0.000000   0.146446
   42  O  3  Y    0.184506   0.000000   0.000000  -0.315723   0.000000
   43  O  3  Z    0.000000   0.154127  -0.108748   0.000000  -0.277114
   44  O  3 XX    0.000000   0.019160   0.010540   0.000000  -0.010459
   45  O  3 YY    0.000000  -0.004974  -0.008873   0.000000  -0.000700
   46  O  3 ZZ    0.000000  -0.014186  -0.001667   0.000000   0.011159
   47  O  3 XY   -0.024597   0.000000   0.000000   0.020257   0.000000
   48  O  3 XZ    0.000000  -0.014125   0.013684   0.000000   0.018845
   49  O  3 YZ   -0.007584   0.000000   0.000000   0.006553   0.000000

                     16         17         18         19         20
                   -0.2494    -0.1349    -0.0283     0.1466     0.3503
                     A1         B2         A1         B1         B2  
    1  S  1  S    0.025115   0.000000   0.017691   0.000000   0.000000
    2  S  1  S   -0.131093   0.000000  -0.115966   0.000000   0.000000
    3  S  1  S    0.087772   0.000000   0.039087   0.000000   0.000000
    4  S  1  S    0.741717   0.000000   0.873497   0.000000   0.000000
    5  S  1  X    0.000000   0.000000   0.000000  -0.107907   0.000000
    6  S  1  Y    0.000000  -0.214400   0.000000   0.000000   0.283271
    7  S  1  Z    0.119389   0.000000  -0.170544   0.000000   0.000000
    8  S  1  X    0.000000   0.000000   0.000000   0.282837   0.000000
    9  S  1  Y    0.000000   0.549978   0.000000   0.000000  -1.095312
   10  S  1  Z   -0.285531   0.000000   0.457217   0.000000   0.000000
   11  S  1  X    0.000000   0.000000   0.000000   1.666711   0.000000
   12  S  1  Y    0.000000   0.541925   0.000000   0.000000   1.250194
   13  S  1  Z   -0.128829   0.000000   0.702396   0.000000   0.000000
   14  S  1 XX   -0.187357   0.000000  -0.168206   0.000000   0.000000
   15  S  1 YY    0.093049   0.000000   0.152316   0.000000   0.000000
   16  S  1 ZZ    0.094308   0.000000   0.015890   0.000000   0.000000
   17  S  1 XY    0.000000   0.000000   0.000000   0.000000   0.000000
   18  S  1 XZ    0.000000   0.000000   0.000000  -0.176025   0.000000
   19  S  1 YZ    0.000000  -0.043723   0.000000   0.000000  -0.191004
   20  O  2  S    0.014462   0.000000   0.043946  -0.070336   0.000000
   21  O  2  S   -0.033002   0.000000  -0.089432   0.102503   0.000000
   22  O  2  S   -0.108302   0.000000  -0.383132   0.915909   0.000000
   23  O  2  X   -0.204707   0.000000  -0.327154   0.055707   0.000000
   24  O  2  Y    0.000000  -0.389418   0.000000   0.000000  -0.038758
   25  O  2  Z    0.344752   0.000000  -0.191258  -0.206475   0.000000
   26  O  2  X   -0.152410   0.000000  -0.347449   0.224360   0.000000
   27  O  2  Y    0.000000  -0.350999   0.000000   0.000000  -0.098098
   28  O  2  Z    0.260656   0.000000  -0.187310  -0.270381   0.000000
   29  O  2 XX   -0.004232   0.000000  -0.003007   0.013261   0.000000
   30  O  2 YY    0.003156   0.000000   0.004836  -0.003987   0.000000
   31  O  2 ZZ    0.001076   0.000000  -0.001829  -0.009274   0.000000
   32  O  2 XY    0.000000  -0.002132   0.000000   0.000000  -0.034501
   33  O  2 XZ    0.006771   0.000000   0.004045  -0.002343   0.000000
   34  O  2 YZ    0.000000  -0.001013   0.000000   0.000000   0.005769
   35  O  3  S    0.014462   0.000000   0.043946   0.070336   0.000000
   36  O  3  S   -0.033002   0.000000  -0.089432  -0.102503   0.000000
   37  O  3  S   -0.108302   0.000000  -0.383132  -0.915909   0.000000
   38  O  3  X    0.204707   0.000000   0.327154   0.055707   0.000000
   39  O  3  Y    0.000000  -0.389418   0.000000   0.000000  -0.038758
   40  O  3  Z    0.344752   0.000000  -0.191258   0.206475   0.000000
   41  O  3  X    0.152410   0.000000   0.347449   0.224360   0.000000
   42  O  3  Y    0.000000  -0.350999   0.000000   0.000000  -0.098098
   43  O  3  Z    0.260656   0.000000  -0.187310   0.270381   0.000000
   44  O  3 XX   -0.004232   0.000000  -0.003007  -0.013261   0.000000
   45  O  3 YY    0.003156   0.000000   0.004836   0.003987   0.000000
   46  O  3 ZZ    0.001076   0.000000  -0.001829   0.009274   0.000000
   47  O  3 XY    0.000000   0.002132   0.000000   0.000000   0.034501
   48  O  3 XZ   -0.006771   0.000000  -0.004045  -0.002343   0.000000
   49  O  3 YZ    0.000000  -0.001013   0.000000   0.000000   0.005769

                     21         22         23         24         25
                    0.3572     0.4158     0.4703     0.5262     0.5306
                     A1         A1         B1         B2         A1  
    1  S  1  S   -0.009040  -0.115004   0.000000   0.000000  -0.005395
    2  S  1  S   -0.054733  -0.379560   0.000000   0.000000   0.004176
    3  S  1  S   -0.161690  -1.721013   0.000000   0.000000  -0.055857
    4  S  1  S    0.590752   2.414616   0.000000   0.000000  -0.230171
    5  S  1  X    0.000000   0.000000   0.274879   0.000000   0.000000
    6  S  1  Y    0.000000   0.000000   0.000000   0.056371   0.000000
    7  S  1  Z    0.273862  -0.045947   0.000000   0.000000  -0.041027
    8  S  1  X    0.000000   0.000000  -0.947659   0.000000   0.000000
    9  S  1  Y    0.000000   0.000000   0.000000  -0.228165   0.000000
   10  S  1  Z   -1.031910   0.211976   0.000000   0.000000   0.157993
   11  S  1  X    0.000000   0.000000   1.264364   0.000000   0.000000
   12  S  1  Y    0.000000   0.000000   0.000000   0.255270   0.000000
   13  S  1  Z    1.295353  -0.006778   0.000000   0.000000  -0.277549
   14  S  1 XX    0.251929   0.149602   0.000000   0.000000  -0.018380
   15  S  1 YY    0.009733  -0.097120   0.000000   0.000000   0.834693
   16  S  1 ZZ   -0.261662  -0.052481   0.000000   0.000000  -0.816312
   17  S  1 XY    0.000000   0.000000   0.000000   0.000000   0.000000
   18  S  1 XZ    0.000000   0.000000   0.523190   0.000000   0.000000
   19  S  1 YZ    0.000000   0.000000   0.000000   0.953729   0.000000
   20  O  2  S    0.012458   0.017446  -0.006541   0.000000  -0.011517
   21  O  2  S    0.018317  -0.016477  -0.058222   0.000000   0.031931
   22  O  2  S   -0.373429  -0.486862   0.524584   0.000000   0.136666
   23  O  2  X    0.111724   0.188979  -0.276534   0.000000   0.058018
   24  O  2  Y    0.000000   0.000000   0.000000  -0.190247   0.000000
   25  O  2  Z   -0.053085  -0.095858   0.184603   0.000000   0.193694
   26  O  2  X   -0.168501  -0.246513   0.130729   0.000000   0.118272
   27  O  2  Y    0.000000   0.000000   0.000000   0.017389   0.000000
   28  O  2  Z   -0.020967   0.111444  -0.004157   0.000000  -0.070501
   29  O  2 XX   -0.044615  -0.049977   0.032058   0.000000  -0.004070
   30  O  2 YY    0.020286   0.032645  -0.034219   0.000000   0.029945
   31  O  2 ZZ    0.024330   0.017332   0.002162   0.000000  -0.025875
   32  O  2 XY    0.000000   0.000000   0.000000   0.024573   0.000000
   33  O  2 XZ   -0.009439   0.041960  -0.053345   0.000000  -0.029821
   34  O  2 YZ    0.000000   0.000000   0.000000   0.033923   0.000000
   35  O  3  S    0.012458   0.017446   0.006541   0.000000  -0.011517
   36  O  3  S    0.018317  -0.016477   0.058222   0.000000   0.031931
   37  O  3  S   -0.373429  -0.486862  -0.524584   0.000000   0.136666
   38  O  3  X   -0.111724  -0.188979  -0.276534   0.000000  -0.058018
   39  O  3  Y    0.000000   0.000000   0.000000  -0.190247   0.000000
   40  O  3  Z   -0.053085  -0.095858  -0.184603   0.000000   0.193694
   41  O  3  X    0.168501   0.246513   0.130729   0.000000  -0.118272
   42  O  3  Y    0.000000   0.000000   0.000000   0.017389   0.000000
   43  O  3  Z   -0.020967   0.111444   0.004157   0.000000  -0.070501
   44  O  3 XX   -0.044615  -0.049977  -0.032058   0.000000  -0.004070
   45  O  3 YY    0.020286   0.032645   0.034219   0.000000   0.029945
   46  O  3 ZZ    0.024330   0.017332  -0.002162   0.000000  -0.025875
   47  O  3 XY    0.000000   0.000000   0.000000  -0.024573   0.000000
   48  O  3 XZ    0.009439  -0.041960  -0.053345   0.000000   0.029821
   49  O  3 YZ    0.000000   0.000000   0.000000   0.033923   0.000000

                     26         27         28         29         30
                    0.5967     0.6377     0.6513     0.7484     0.7880
                     A2         A1         B1         A2         B1  
    1  S  1  S    0.000000  -0.039870   0.000000   0.000000   0.000000
    2  S  1  S    0.000000  -0.142994   0.000000   0.000000   0.000000
    3  S  1  S    0.000000  -0.634853   0.000000   0.000000   0.000000
    4  S  1  S    0.000000  -1.087365   0.000000   0.000000   0.000000
    5  S  1  X    0.000000   0.000000  -0.203394   0.000000  -0.033378
    6  S  1  Y    0.000000   0.000000   0.000000   0.000000   0.000000
    7  S  1  Z    0.000000   0.083348   0.000000   0.000000   0.000000
    8  S  1  X    0.000000   0.000000   1.066546   0.000000   0.190811
    9  S  1  Y    0.000000   0.000000   0.000000   0.000000   0.000000
   10  S  1  Z    0.000000  -0.448730   0.000000   0.000000   0.000000
   11  S  1  X    0.000000   0.000000   0.082522   0.000000  -0.342464
   12  S  1  Y    0.000000   0.000000   0.000000   0.000000   0.000000
   13  S  1  Z    0.000000  -0.066168   0.000000   0.000000   0.000000
   14  S  1 XX    0.000000  -0.546145   0.000000   0.000000   0.000000
   15  S  1 YY    0.000000   0.278923   0.000000   0.000000   0.000000
   16  S  1 ZZ    0.000000   0.267221   0.000000   0.000000   0.000000
   17  S  1 XY    0.901343   0.000000   0.000000   0.486828   0.000000
   18  S  1 XZ    0.000000   0.000000   0.449608   0.000000   0.232371
   19  S  1 YZ    0.000000   0.000000   0.000000   0.000000   0.000000
   20  O  2  S    0.000000  -0.060141  -0.055932   0.000000   0.003636
   21  O  2  S    0.000000   0.117173   0.132875   0.000000  -0.096032
   22  O  2  S    0.000000   0.617742   0.444358   0.000000   0.043824
   23  O  2  X    0.000000  -0.324070  -0.156046   0.000000  -0.207235
   24  O  2  Y    0.386197   0.000000   0.000000  -0.536249   0.000000
   25  O  2  Z    0.000000   0.001740   0.201659   0.000000  -0.571991
   26  O  2  X    0.000000   1.124506   0.965377   0.000000   0.430580
   27  O  2  Y   -0.047083   0.000000   0.000000   0.817118   0.000000
   28  O  2  Z    0.000000  -0.345318  -0.414419   0.000000   0.728558
   29  O  2 XX    0.000000  -0.001767  -0.032362   0.000000  -0.028915
   30  O  2 YY    0.000000   0.001572   0.013516   0.000000   0.007731
   31  O  2 ZZ    0.000000   0.000196   0.018846   0.000000   0.021183
   32  O  2 XY   -0.055584   0.000000   0.000000  -0.048470   0.000000
   33  O  2 XZ    0.000000   0.003635   0.011983   0.000000  -0.018055
   34  O  2 YZ    0.036376   0.000000   0.000000   0.024080   0.000000
   35  O  3  S    0.000000  -0.060141   0.055932   0.000000  -0.003636
   36  O  3  S    0.000000   0.117173  -0.132875   0.000000   0.096032
   37  O  3  S    0.000000   0.617742  -0.444358   0.000000  -0.043824
   38  O  3  X    0.000000   0.324070  -0.156046   0.000000  -0.207235
   39  O  3  Y   -0.386197   0.000000   0.000000   0.536249   0.000000
   40  O  3  Z    0.000000   0.001740  -0.201659   0.000000   0.571991
   41  O  3  X    0.000000  -1.124506   0.965377   0.000000   0.430580
   42  O  3  Y    0.047083   0.000000   0.000000  -0.817118   0.000000
   43  O  3  Z    0.000000  -0.345318   0.414419   0.000000  -0.728558
   44  O  3 XX    0.000000  -0.001767   0.032362   0.000000   0.028915
   45  O  3 YY    0.000000   0.001572  -0.013516   0.000000  -0.007731
   46  O  3 ZZ    0.000000   0.000196  -0.018846   0.000000  -0.021183
   47  O  3 XY   -0.055584   0.000000   0.000000  -0.048470   0.000000
   48  O  3 XZ    0.000000  -0.003635   0.011983   0.000000  -0.018055
   49  O  3 YZ   -0.036376   0.000000   0.000000  -0.024080   0.000000

                     31         32         33         34         35
                    0.8258     0.8584     0.9973     1.1764     1.6468
                     A1         B2         B1         A1         A1  
    1  S  1  S    0.009574   0.000000   0.000000  -0.003573  -0.013038
    2  S  1  S    0.055626   0.000000   0.000000  -0.216782  -0.121610
    3  S  1  S    0.178504   0.000000   0.000000  -0.311401  -0.276151
    4  S  1  S   -0.086116   0.000000   0.000000   0.985549   2.183063
    5  S  1  X    0.000000   0.000000  -0.140827   0.000000   0.000000
    6  S  1  Y    0.000000  -0.028775   0.000000   0.000000   0.000000
    7  S  1  Z   -0.034294   0.000000   0.000000  -0.079699  -0.006693
    8  S  1  X    0.000000   0.000000   0.350409   0.000000   0.000000
    9  S  1  Y    0.000000   0.094893   0.000000   0.000000   0.000000
   10  S  1  Z    0.137295   0.000000   0.000000   0.273149   0.134382
   11  S  1  X    0.000000   0.000000   0.344945   0.000000   0.000000
   12  S  1  Y    0.000000  -0.814617   0.000000   0.000000   0.000000
   13  S  1  Z   -0.781307   0.000000   0.000000   0.118484   0.675015
   14  S  1 XX    0.199839   0.000000   0.000000   1.094214   0.264445
   15  S  1 YY    0.114803   0.000000   0.000000  -0.656076  -0.199382
   16  S  1 ZZ   -0.314642   0.000000   0.000000  -0.438139  -0.065063
   17  S  1 XY    0.000000   0.000000   0.000000   0.000000   0.000000
   18  S  1 XZ    0.000000   0.000000   0.831203   0.000000   0.000000
   19  S  1 YZ    0.000000  -0.240480   0.000000   0.000000   0.000000
   20  O  2  S   -0.005853   0.000000  -0.030153   0.036292   0.000796
   21  O  2  S    0.108829   0.000000   0.147960  -0.134680   1.209878
   22  O  2  S   -0.041872   0.000000   0.316680  -0.528875  -2.071226
   23  O  2  X   -0.208761   0.000000   0.612406  -0.513291   0.025632
   24  O  2  Y    0.000000  -0.609543   0.000000   0.000000   0.000000
   25  O  2  Z   -0.545379   0.000000  -0.096640   0.300332   0.078122
   26  O  2  X    0.224444   0.000000  -0.284361   0.071154  -0.724401
   27  O  2  Y    0.000000   0.995146   0.000000   0.000000   0.000000
   28  O  2  Z    0.936805   0.000000   0.148165  -0.020485  -0.011981
   29  O  2 XX   -0.011927   0.000000  -0.058420  -0.055227   0.210597
   30  O  2 YY    0.001623   0.000000  -0.017602  -0.024205  -0.103429
   31  O  2 ZZ    0.010304   0.000000   0.076022   0.079432  -0.107168
   32  O  2 XY    0.000000  -0.045573   0.000000   0.000000   0.000000
   33  O  2 XZ   -0.042000   0.000000  -0.062191  -0.068382  -0.030823
   34  O  2 YZ    0.000000   0.003611   0.000000   0.000000   0.000000
   35  O  3  S   -0.005853   0.000000   0.030153   0.036292   0.000796
   36  O  3  S    0.108829   0.000000  -0.147960  -0.134680   1.209878
   37  O  3  S   -0.041872   0.000000  -0.316680  -0.528875  -2.071226
   38  O  3  X    0.208761   0.000000   0.612406   0.513291  -0.025632
   39  O  3  Y    0.000000  -0.609543   0.000000   0.000000   0.000000
   40  O  3  Z   -0.545379   0.000000   0.096640   0.300332   0.078122
   41  O  3  X   -0.224444   0.000000  -0.284361  -0.071154   0.724401
   42  O  3  Y    0.000000   0.995146   0.000000   0.000000   0.000000
   43  O  3  Z    0.936805   0.000000  -0.148165  -0.020485  -0.011981
   44  O  3 XX   -0.011927   0.000000   0.058420  -0.055227   0.210597
   45  O  3 YY    0.001623   0.000000   0.017602  -0.024205  -0.103429
   46  O  3 ZZ    0.010304   0.000000  -0.076022   0.079432  -0.107168
   47  O  3 XY    0.000000   0.045573   0.000000   0.000000   0.000000
   48  O  3 XZ    0.042000   0.000000  -0.062191   0.068382   0.030823
   49  O  3 YZ    0.000000   0.003611   0.000000   0.000000   0.000000

                     36         37         38         39         40
                    1.7075     2.0407     2.0412     2.0636     2.0804
                     B1         A2         B1         B2         A1  
    1  S  1  S    0.000000   0.000000   0.000000   0.000000  -0.002492
    2  S  1  S    0.000000   0.000000   0.000000   0.000000  -0.022565
    3  S  1  S    0.000000   0.000000   0.000000   0.000000  -0.059310
    4  S  1  S    0.000000   0.000000   0.000000   0.000000   0.048372
    5  S  1  X   -0.021130   0.000000  -0.000941   0.000000   0.000000
    6  S  1  Y    0.000000   0.000000   0.000000  -0.029765   0.000000
    7  S  1  Z    0.000000   0.000000   0.000000   0.000000   0.006187
    8  S  1  X    0.320676   0.000000  -0.004740   0.000000   0.000000
    9  S  1  Y    0.000000   0.000000   0.000000   0.111042   0.000000
   10  S  1  Z    0.000000   0.000000   0.000000   0.000000  -0.033693
   11  S  1  X    1.564998   0.000000   0.055413   0.000000   0.000000
   12  S  1  Y    0.000000   0.000000   0.000000   0.020969   0.000000
   13  S  1  Z    0.000000   0.000000   0.000000   0.000000   0.017437
   14  S  1 XX    0.000000   0.000000   0.000000   0.000000   0.079614
   15  S  1 YY    0.000000   0.000000   0.000000   0.000000  -0.162828
   16  S  1 ZZ    0.000000   0.000000   0.000000   0.000000   0.083213
   17  S  1 XY    0.000000   0.029010   0.000000   0.000000   0.000000
   18  S  1 XZ    0.206651   0.000000  -0.027202   0.000000   0.000000
   19  S  1 YZ    0.000000   0.000000   0.000000  -0.069604   0.000000
   20  O  2  S   -0.003577   0.000000   0.000111   0.000000   0.002372
   21  O  2  S   -1.261114   0.000000  -0.025628   0.000000  -0.041463
   22  O  2  S    2.259619   0.000000   0.046357   0.000000   0.006731
   23  O  2  X    0.060901   0.000000   0.008698   0.000000  -0.038559
   24  O  2  Y    0.000000  -0.008615   0.000000   0.026950   0.000000
   25  O  2  Z    0.075356   0.000000   0.014460   0.000000   0.011054
   26  O  2  X    0.374767   0.000000  -0.015073   0.000000   0.026665
   27  O  2  Y    0.000000   0.014866   0.000000  -0.044578   0.000000
   28  O  2  Z   -0.392388   0.000000  -0.026074   0.000000  -0.007228
   29  O  2 XX   -0.115794   0.000000  -0.161531   0.000000  -0.007061
   30  O  2 YY    0.089161   0.000000   0.613828   0.000000   0.592295
   31  O  2 ZZ    0.026633   0.000000  -0.452297   0.000000  -0.585234
   32  O  2 XY    0.000000   0.345632   0.000000  -0.029387   0.000000
   33  O  2 XZ    0.161241   0.000000  -0.309047   0.000000  -0.196878
   34  O  2 YZ    0.000000   0.617248   0.000000   0.708861   0.000000
   35  O  3  S    0.003577   0.000000  -0.000111   0.000000   0.002372
   36  O  3  S    1.261114   0.000000   0.025628   0.000000  -0.041463
   37  O  3  S   -2.259619   0.000000  -0.046357   0.000000   0.006731
   38  O  3  X    0.060901   0.000000   0.008698   0.000000   0.038559
   39  O  3  Y    0.000000   0.008615   0.000000   0.026950   0.000000
   40  O  3  Z   -0.075356   0.000000  -0.014460   0.000000   0.011054
   41  O  3  X    0.374767   0.000000  -0.015073   0.000000  -0.026665
   42  O  3  Y    0.000000  -0.014866   0.000000  -0.044578   0.000000
   43  O  3  Z    0.392388   0.000000   0.026074   0.000000  -0.007228
   44  O  3 XX    0.115794   0.000000   0.161531   0.000000  -0.007061
   45  O  3 YY   -0.089161   0.000000  -0.613828   0.000000   0.592295
   46  O  3 ZZ   -0.026633   0.000000   0.452297   0.000000  -0.585234
   47  O  3 XY    0.000000   0.345632   0.000000   0.029387   0.000000
   48  O  3 XZ    0.161241   0.000000  -0.309047   0.000000   0.196878
   49  O  3 YZ    0.000000  -0.617248   0.000000   0.708861   0.000000

                     41         42         43         44         45
                    2.1915     2.3122     2.3789     2.4250     2.8723
                     B2         B1         A1         A2         A1  
    1  S  1  S    0.000000   0.000000  -0.007736   0.000000  -0.056314
    2  S  1  S    0.000000   0.000000  -0.041321   0.000000  -0.103754
    3  S  1  S    0.000000   0.000000  -0.156558   0.000000  -0.848934
    4  S  1  S    0.000000   0.000000  -0.361587   0.000000  -1.465478
    5  S  1  X    0.000000   0.033004   0.000000   0.000000   0.000000
    6  S  1  Y    0.071544   0.000000   0.000000   0.000000   0.000000
    7  S  1  Z    0.000000   0.000000   0.075995   0.000000   0.075170
    8  S  1  X    0.000000  -0.243515   0.000000   0.000000   0.000000
    9  S  1  Y   -0.263938   0.000000   0.000000   0.000000   0.000000
   10  S  1  Z    0.000000   0.000000  -0.339704   0.000000  -0.523852
   11  S  1  X    0.000000  -0.113519   0.000000   0.000000   0.000000
   12  S  1  Y   -0.137429   0.000000   0.000000   0.000000   0.000000
   13  S  1  Z    0.000000   0.000000  -0.270921   0.000000  -0.188631
   14  S  1 XX    0.000000   0.000000   0.338156   0.000000  -0.938825
   15  S  1 YY    0.000000   0.000000   0.032364   0.000000   0.521761
   16  S  1 ZZ    0.000000   0.000000  -0.370520   0.000000   0.417064
   17  S  1 XY    0.000000   0.000000   0.000000   0.624168   0.000000
   18  S  1 XZ    0.000000   0.499268   0.000000   0.000000   0.000000
   19  S  1 YZ   -0.255665   0.000000   0.000000   0.000000   0.000000
   20  O  2  S    0.000000  -0.001450  -0.000692   0.000000  -0.041817
   21  O  2  S    0.000000   0.251866  -0.343024   0.000000  -0.577309
   22  O  2  S    0.000000  -0.299442   0.483698   0.000000   1.588448
   23  O  2  X    0.000000   0.087346  -0.125287   0.000000   0.133770
   24  O  2  Y   -0.070426   0.000000   0.000000  -0.016878   0.000000
   25  O  2  Z    0.000000  -0.069836  -0.017605   0.000000  -0.074759
   26  O  2  X    0.000000  -0.090517   0.321886   0.000000   0.826352
   27  O  2  Y    0.188774   0.000000   0.000000   0.202824   0.000000
   28  O  2  Z    0.000000   0.226442   0.168721   0.000000  -0.325500
   29  O  2 XX    0.000000   0.313140   0.516738   0.000000   0.605431
   30  O  2 YY    0.000000   0.153093  -0.131637   0.000000  -0.452320
   31  O  2 ZZ    0.000000  -0.466233  -0.385102   0.000000  -0.153112
   32  O  2 XY    0.734366   0.000000   0.000000   0.679966   0.000000
   33  O  2 XZ    0.000000   0.564759   0.506582   0.000000  -0.622461
   34  O  2 YZ    0.019358   0.000000   0.000000  -0.368943   0.000000
   35  O  3  S    0.000000   0.001450  -0.000692   0.000000  -0.041817
   36  O  3  S    0.000000  -0.251866  -0.343024   0.000000  -0.577309
   37  O  3  S    0.000000   0.299442   0.483698   0.000000   1.588448
   38  O  3  X    0.000000   0.087346   0.125287   0.000000  -0.133770
   39  O  3  Y   -0.070426   0.000000   0.000000   0.016878   0.000000
   40  O  3  Z    0.000000   0.069836  -0.017605   0.000000  -0.074759
   41  O  3  X    0.000000  -0.090517  -0.321886   0.000000  -0.826352
   42  O  3  Y    0.188774   0.000000   0.000000  -0.202824   0.000000
   43  O  3  Z    0.000000  -0.226442   0.168721   0.000000  -0.325500
   44  O  3 XX    0.000000  -0.313140   0.516738   0.000000   0.605431
   45  O  3 YY    0.000000  -0.153093  -0.131637   0.000000  -0.452320
   46  O  3 ZZ    0.000000   0.466233  -0.385102   0.000000  -0.153112
   47  O  3 XY   -0.734366   0.000000   0.000000   0.679966   0.000000
   48  O  3 XZ    0.000000   0.564759  -0.506582   0.000000   0.622461
   49  O  3 YZ    0.019358   0.000000   0.000000   0.368943   0.000000

                     46
                    2.9073
                     B1  
    1  S  1  S    0.000000
    2  S  1  S    0.000000
    3  S  1  S    0.000000
    4  S  1  S    0.000000
    5  S  1  X   -0.228251
    6  S  1  Y    0.000000
    7  S  1  Z    0.000000
    8  S  1  X    1.476596
    9  S  1  Y    0.000000
   10  S  1  Z    0.000000
   11  S  1  X    0.458423
   12  S  1  Y    0.000000
   13  S  1  Z    0.000000
   14  S  1 XX    0.000000
   15  S  1 YY    0.000000
   16  S  1 ZZ    0.000000
   17  S  1 XY    0.000000
   18  S  1 XZ    0.601980
   19  S  1 YZ    0.000000
   20  O  2  S   -0.038553
   21  O  2  S   -0.542338
   22  O  2  S    1.417670
   23  O  2  X    0.127861
   24  O  2  Y    0.000000
   25  O  2  Z   -0.019963
   26  O  2  X    0.740675
   27  O  2  Y    0.000000
   28  O  2  Z   -0.256844
   29  O  2 XX    0.783990
   30  O  2 YY   -0.393989
   31  O  2 ZZ   -0.390001
   32  O  2 XY    0.000000
   33  O  2 XZ   -0.378265
   34  O  2 YZ    0.000000
   35  O  3  S    0.038553
   36  O  3  S    0.542338
   37  O  3  S   -1.417670
   38  O  3  X    0.127861
   39  O  3  Y    0.000000
   40  O  3  Z    0.019963
   41  O  3  X    0.740675
   42  O  3  Y    0.000000
   43  O  3  Z    0.256844
   44  O  3 XX   -0.783990
   45  O  3 YY    0.393989
   46  O  3 ZZ    0.390001
   47  O  3 XY    0.000000
   48  O  3 XZ   -0.378265
   49  O  3 YZ    0.000000
 ...... END OF RHF CALCULATION ......
 STEP CPU TIME =     4.38 TOTAL CPU TIME =        4.6 (    0.1 MIN)
 TOTAL WALL CLOCK TIME=        4.6 SECONDS, CPU UTILIZATION IS 100.00%

     ---------------------------------------------------------------------
     PROPERTIES FOR THE PBE      DFT FUNCTIONAL (RHF  TYPE) DENSITY MATRIX
     ---------------------------------------------------------------------

          -----------------
          ENERGY COMPONENTS
          -----------------

         WAVEFUNCTION NORMALIZATION =       1.0000000000

                ONE ELECTRON ENERGY =    -973.2038718796
                TWO ELECTRON ENERGY =     315.3455420967
           NUCLEAR REPULSION ENERGY =     109.6355808060
                                      ------------------
                       TOTAL ENERGY =    -548.2227489769

 ELECTRON-ELECTRON POTENTIAL ENERGY =     315.3455420967
  NUCLEUS-ELECTRON POTENTIAL ENERGY =   -1521.2737324212
   NUCLEUS-NUCLEUS POTENTIAL ENERGY =     109.6355808060
                                      ------------------
             TOTAL POTENTIAL ENERGY =   -1096.2926095185
               TOTAL KINETIC ENERGY =     548.0698605416
                 VIRIAL RATIO (V/T) =       2.0002789579

          ---------------------------------------
          MULLIKEN AND LOWDIN POPULATION ANALYSES
          ---------------------------------------

     ATOMIC MULLIKEN POPULATION IN EACH MOLECULAR ORBITAL

                      1          2          3          4          5

                  2.000000   2.000000   2.000000   2.000000   2.000000

    1             2.000044   0.001724   0.001459   2.002455   1.999536
    2            -0.000022   0.999138   0.999270  -0.001228   0.000232
    3            -0.000022   0.999138   0.999270  -0.001228   0.000232

                      6          7          8          9         10

                  2.000000   2.000000   2.000000   2.000000   2.000000

    1             1.999992   1.999848   0.705457   0.426274   0.699091
    2             0.000004   0.000076   0.647271   0.786863   0.650454
    3             0.000004   0.000076   0.647271   0.786863   0.650454

                     11         12         13         14         15

                  2.000000   2.000000   2.000000   2.000000   2.000000

    1             0.965234   0.902441   0.320723   0.139179   0.153294
    2             0.517383   0.548780   0.839639   0.930411   0.923353
    3             0.517383   0.548780   0.839639   0.930411   0.923353

                     16

                  2.000000

    1             0.988511
    2             0.505745
    3             0.505745

               ----- POPULATIONS IN EACH AO -----
                             MULLIKEN      LOWDIN
              1  S  1  S      2.00025     1.99576
              2  S  1  S      2.01024     1.95952
              3  S  1  S      0.92981     0.56068
              4  S  1  S      0.95790     0.57322
              5  S  1  X      1.99682     1.95560
              6  S  1  Y      1.99609     1.95378
              7  S  1  Z      1.99700     1.96126
              8  S  1  X      0.69965     0.61201
              9  S  1  Y      0.63366     0.58881
             10  S  1  Z      0.80715     0.77806
             11  S  1  X      0.04572     0.24042
             12  S  1  Y      0.32305     0.38743
             13  S  1  Z      0.31066     0.42018
             14  S  1 XX      0.09076     0.35511
             15  S  1 YY      0.19554     0.28427
             16  S  1 ZZ      0.13918     0.29900
             17  S  1 XY      0.15935     0.17051
             18  S  1 XZ      0.01242     0.19214
             19  S  1 YZ      0.00000     0.01205
             20  O  2  S      1.99799     1.98057
             21  O  2  S      0.83240     0.64451
             22  O  2  S      1.00718     0.53744
             23  O  2  X      0.92891     0.88674
             24  O  2  Y      0.87538     0.83180
             25  O  2  Z      1.08016     1.04636
             26  O  2  X      0.41704     0.53607
             27  O  2  Y      0.56398     0.60133
             28  O  2  Z      0.61874     0.66189
             29  O  2 XX      0.00348     0.20937
             30  O  2 YY      0.00665     0.19740
             31  O  2 ZZ      0.00760     0.19449
             32  O  2 XY      0.00702     0.00954
             33  O  2 XZ      0.00084     0.01153
             34  O  2 YZ      0.00000     0.00104
             35  O  3  S      1.99799     1.98057
             36  O  3  S      0.83240     0.64451
             37  O  3  S      1.00718     0.53744
             38  O  3  X      0.92891     0.88674
             39  O  3  Y      0.87538     0.83180
             40  O  3  Z      1.08016     1.04636
             41  O  3  X      0.41704     0.53607
             42  O  3  Y      0.56398     0.60133
             43  O  3  Z      0.61874     0.66189
             44  O  3 XX      0.00348     0.20937
             45  O  3 YY      0.00665     0.19740
             46  O  3 ZZ      0.00760     0.19449
             47  O  3 XY      0.00702     0.00954
             48  O  3 XZ      0.00084     0.01153
             49  O  3 YZ      0.00000     0.00104

          ----- MULLIKEN ATOMIC OVERLAP POPULATIONS -----
          (OFF-DIAGONAL ELEMENTS NEED TO BE MULTIPLIED BY 2)

             1           2           3

    1   14.7359446
    2    0.2846586   8.0644232
    3    0.2846586  -0.0017127   8.0644232

          TOTAL MULLIKEN AND LOWDIN ATOMIC POPULATIONS
       ATOM         MULL.POP.    CHARGE          LOW.POP.     CHARGE
    1 S            15.305262    0.694738        15.299825    0.700175
    2 O             8.347369   -0.347369         8.350087   -0.350087
    3 O             8.347369   -0.347369         8.350087   -0.350087

          MULLIKEN SPHERICAL HARMONIC POPULATIONS
       ATOM           S       P       D      F      G      H      I    TOTAL
    1 S             5.90    8.81    0.60   0.00   0.00   0.00   0.00   15.31
    2 O             3.84    4.48    0.03   0.00   0.00   0.00   0.00    8.35
    3 O             3.84    4.48    0.03   0.00   0.00   0.00   0.00    8.35

          -------------------------------
          BOND ORDER AND VALENCE ANALYSIS     BOND ORDER THRESHOLD=0.050
          -------------------------------

                   BOND                       BOND                       BOND
  ATOM PAIR DIST  ORDER      ATOM PAIR DIST  ORDER      ATOM PAIR DIST  ORDER
    1   2  1.400  1.906        1   3  1.400  1.906        2   3  2.631  0.232

                       TOTAL       BONDED        FREE
      ATOM            VALENCE     VALENCE     VALENCE
    1 S                 3.813       3.813       0.000
    2 O                 2.139       2.139       0.000
    3 O                 2.139       2.139       0.000

          ---------------------
          ELECTROSTATIC MOMENTS
          ---------------------

 POINT   1           X           Y           Z (BOHR)    CHARGE
                 0.000000    0.000000    0.000000        0.00 (A.U.)
         DX          DY          DZ         /D/  (DEBYE)
     0.000000    0.000000   -0.541899    0.541899
 ...... END OF PROPERTY EVALUATION ......
 STEP CPU TIME =     0.01 TOTAL CPU TIME =        4.6 (    0.1 MIN)
 TOTAL WALL CLOCK TIME=        4.6 SECONDS, CPU UTILIZATION IS 100.00%
               580000  WORDS OF DYNAMIC MEMORY USED
 EXECUTION OF GAMESS TERMINATED NORMALLY Thu Feb 26 00:15:52 2015
 DDI: 263624 bytes (0.3 MB / 0 MWords) used by master data server.

 ----------------------------------------
 CPU timing information for all processes
 ========================================
 0: 4.541 + 0.32 = 4.574
 ----------------------------------------
 ddikick.x: exited gracefully.
----- accounting info -----
Files used on the master node dftfe.crc.nd.edu were:
-rw-r--r-- 1 pmehta1 campus   37475 Feb 26 00:15 /tmp/gamess.dat
-rw-r--r-- 1 pmehta1 campus     142 Feb 26 00:15 /tmp/gamess.F05
-rw-r--r-- 1 pmehta1 campus 2160288 Feb 26 00:15 /tmp/gamess.F08
-rw-r--r-- 1 pmehta1 campus 1220440 Feb 26 00:15 /tmp/gamess.F10
Thu Feb 26 00:15:55 EST 2015
0.243u 0.177s 0:08.00 5.1%	0+0k 0+112io 0pf+0w
