----- GAMESS execution script 'rungms' -----
This job is running on host dftfe.crc.nd.edu
under operating system Linux at Thu Feb 26 00:16:23 EST 2015
Available scratch disk space (Kbyte units) at beginning of the job is
Filesystem     1K-blocks     Used Available Use% Mounted on
/dev/sda2      147771864 22813140 117452292  17% /
GAMESS temporary binary files will be written to /tmp
GAMESS supplementary output files will be written to /tmp
Copying input file gamess.inp to your run's scratch directory...

 Distributed Data Interface kickoff program.
 Initiating 1 compute processes on 1 nodes to run the following command:
 /opt/crc/gamess/2012R1/gamess/gamess.00.x gamess 

          ******************************************************
          *         GAMESS VERSION =  1 MAY 2012 (R1)          *
          *             FROM IOWA STATE UNIVERSITY             *
          * M.W.SCHMIDT, K.K.BALDRIDGE, J.A.BOATZ, S.T.ELBERT, *
          *   M.S.GORDON, J.H.JENSEN, S.KOSEKI, N.MATSUNAGA,   *
          *          K.A.NGUYEN, S.J.SU, T.L.WINDUS,           *
          *       TOGETHER WITH M.DUPUIS, J.A.MONTGOMERY       *
          *         J.COMPUT.CHEM.  14, 1347-1363(1993)        *
          **************** 64 BIT LINUX VERSION ****************

  SINCE 1993, STUDENTS AND POSTDOCS WORKING AT IOWA STATE UNIVERSITY
  AND ALSO IN THEIR VARIOUS JOBS AFTER LEAVING ISU HAVE MADE IMPORTANT
  CONTRIBUTIONS TO THE CODE:
     IVANA ADAMOVIC, CHRISTINE AIKENS, YURI ALEXEEV, POOJA ARORA,
     ANDREY ASADCHEV, ROB BELL, PRADIPTA BANDYOPADHYAY, JONATHAN BENTZ,
     BRETT BODE, GALINA CHABAN, WEI CHEN, CHEOL HO CHOI, PAUL DAY,
     ALBERT DEFUSCO, TIM DUDLEY, DMITRI FEDOROV, GRAHAM FLETCHER,
     MARK FREITAG, KURT GLAESEMANN, DAN KEMP, GRANT MERRILL,
     NORIYUKI MINEZAWA, JONATHAN MULLIN, TAKESHI NAGATA,
     SEAN NEDD, HEATHER NETZLOFF, BOSILJKA NJEGIC, RYAN OLSON, MIKE PAK,
     JIM SHOEMAKER, LYUDMILA SLIPCHENKO, SAROM SOK, JIE SONG,
     TETSUYA TAKETSUGU, SIMON WEBB, SOOHAENG YOO, FEDERICO ZAHARIEV

  ADDITIONAL CODE HAS BEEN PROVIDED BY COLLABORATORS IN OTHER GROUPS:
     IOWA STATE UNIVERSITY:
          JOE IVANIC, LAIMUTIS BYTAUTAS, KLAUS RUEDENBERG
     UNIVERSITY OF TOKYO: KIMIHIKO HIRAO, TAKAHITO NAKAJIMA,
          TAKAO TSUNEDA, MUNEAKI KAMIYA, SUSUMU YANAGISAWA,
          KIYOSHI YAGI, MAHITO CHIBA, SEIKEN TOKURA, NAOAKI KAWAKAMI
     UNIVERSITY OF AARHUS: FRANK JENSEN
     UNIVERSITY OF IOWA: VISVALDAS KAIRYS, HUI LI
     NATIONAL INST. OF STANDARDS AND TECHNOLOGY: WALT STEVENS, DAVID GARMER
     UNIVERSITY OF PISA: BENEDETTA MENNUCCI, JACOPO TOMASI
     UNIVERSITY OF MEMPHIS: HENRY KURTZ, PRAKASHAN KORAMBATH
     UNIVERSITY OF ALBERTA: TOBY ZENG, MARIUSZ KLOBUKOWSKI
     UNIVERSITY OF NEW ENGLAND: MARK SPACKMAN
     MIE UNIVERSITY: HIROAKI UMEDA
     MICHIGAN STATE UNIVERSITY:
          KAROL KOWALSKI, MARTA WLOCH, JEFFREY GOUR, JESSE LUTZ, PIOTR PIECUCH
     UNIVERSITY OF SILESIA: MONIKA MUSIAL, STANISLAW KUCHARSKI
     FACULTES UNIVERSITAIRES NOTRE-DAME DE LA PAIX:
          OLIVIER QUINET, BENOIT CHAMPAGNE
     UNIVERSITY OF CALIFORNIA - SANTA BARBARA: BERNARD KIRTMAN
     INSTITUTE FOR MOLECULAR SCIENCE:
          KAZUYA ISHIMURA, MICHIO KATOUDA, AND SHIGERU NAGASE
     UNIVERSITY OF NOTRE DAME: DAN CHIPMAN
     KYUSHU UNIVERSITY:
          HARUYUKI NAKANO,
          FENG LONG GU, JACEK KORCHOWIEC, MARCIN MAKOWSKI, AND YURIKO AOKI,
          HIROTOSHI MORI AND EISAKU MIYOSHI
     PENNSYLVANIA STATE UNIVERSITY:
          TZVETELIN IORDANOV, CHET SWALINA, JONATHAN SKONE,
          SHARON HAMMES-SCHIFFER
     WASEDA UNIVERSITY:
          MASATO KOBAYASHI, TOMOKO AKAMA, TSUGUKI TOUMA,
          TAKESHI YOSHIKAWA, YASUHIRO IKABATA, HIROMI NAKAI
     UNIVERSITY OF NEBRASKA:
          PEIFENG SU, DEJUN SI, NANDUN THELLAMUREGE, YALI WANG, HUI LI
     UNIVERSITY OF ZURICH:
          ROBERTO PEVERATI, KIM BALDRIDGE
     N. COPERNICUS UNIVERSITY AND JACKSON STATE UNIVERSITY:
          MARIA BARYSZ

 EXECUTION OF GAMESS BEGUN Thu Feb 26 00:16:23 2015

            ECHO OF THE FIRST FEW INPUT CARDS -
 INPUT CARD> $BASIS GBASIS=PC1 $END                                                         
 INPUT CARD> $CONTRL COORD=ZMT ISPHER=1 RUNTYP=ENERGY DFTTYP=PBE $END                       
 INPUT CARD>                                                                                
 INPUT CARD> $DATA                                                                          
 INPUT CARD>Title                                                                           
 INPUT CARD>Cnv 2                                                                           
 INPUT CARD>                                                                                
 INPUT CARD>S                                                                               
 INPUT CARD>O 1 1.50                                                                        
 INPUT CARD>O 1 1.50 2 90.0                                                                 
 INPUT CARD> $END                                                                           
    1000000 WORDS OF MEMORY AVAILABLE

     BASIS OPTIONS
     -------------
     GBASIS=PC1          IGAUSS=       0      POLAR=NONE    
     NDFUNC=       0     NFFUNC=       0     DIFFSP=       F
     NPFUNC=       0      DIFFS=       F     BASNAM=        


     RUN TITLE
     ---------
 Title                                                                           

 THE POINT GROUP OF THE MOLECULE IS CNV     
 THE ORDER OF THE PRINCIPAL AXIS IS     2

 YOUR FULLY SUBSTITUTED Z-MATRIX IS
 S   
 O      1   1.5000000
 O      1   1.5000000  2   90.0000

 THE MOMENTS OF INERTIA ARE (AMU-ANGSTROM**2)
 IXX=    17.989   IYY=    35.989   IZZ=    53.978

 ATOM      ATOMIC                      COORDINATES (BOHR)
           CHARGE         X                   Y                   Z
 S          16.0     0.0000000000        0.0000000000       -1.0024566589
 O           8.0    -2.0043570908        0.0000000000        1.0019004318
 O           8.0     2.0043570908        0.0000000000        1.0019004318

          INTERNUCLEAR DISTANCES (ANGS.)
          ------------------------------

                1 S          2 O          3 O     

   1 S       0.0000000    1.5000000 *  1.5000000 *
   2 O       1.5000000 *  0.0000000    2.1213203 *
   3 O       1.5000000 *  2.1213203 *  0.0000000  

  * ... LESS THAN  3.000


     ATOMIC BASIS SET
     ----------------
 THE CONTRACTED PRIMITIVE FUNCTIONS HAVE BEEN UNNORMALIZED
 THE CONTRACTED BASIS FUNCTIONS ARE NOW NORMALIZED TO UNITY

  SHELL TYPE  PRIMITIVE        EXPONENT          CONTRACTION COEFFICIENT(S)

 S         

      1   S       1         55510.0000000    0.000587229760
      1   S       2          8326.7000000    0.004532413947
      1   S       3          1895.6000000    0.023265261648
      1   S       4           536.7700000    0.089696133027
      1   S       5           174.6700000    0.254098332277
      1   S       6            62.5780000    0.438665087637
      1   S       7            23.5730000    0.314547135094
      1   S       8             5.8908000    0.032727897102

      2   S       9          8326.7000000   -0.000019755715
      2   S      10          1895.6000000   -0.000043822381
      2   S      11           536.7700000   -0.001730264906
      2   S      12           174.6700000   -0.009381263460
      2   S      13            62.5780000   -0.064050766303
      2   S      14            23.5730000   -0.082478179196
      2   S      15             5.8908000    0.478342956889
      2   S      16             2.1852000    0.626896670208

      3   S      17          1895.6000000    0.000016227260
      3   S      18           536.7700000    0.000191135619
      3   S      19           174.6700000    0.001952069674
      3   S      20            62.5780000    0.010578701087
      3   S      21            23.5730000    0.022164934551
      3   S      22             5.8908000   -0.184968323118
      3   S      23             2.1852000   -0.480920750976
      3   S      24             0.4528200    1.243822243872

      4   S      25             0.1620200    1.000000000000

      5   P      26           395.4500000    0.004642761329
      5   P      27            92.8340000    0.036023396489
      5   P      28            29.2660000    0.149058869978
      5   P      29            10.5950000    0.360033266263
      5   P      30             4.0272000    0.455756476221
      5   P      31             1.5484000    0.206167664178

      6   P      32            92.8340000    0.000169901442
      6   P      33            29.2660000   -0.002541839934
      6   P      34            10.5950000   -0.007867614595
      6   P      35             4.0272000   -0.037231009184
      6   P      36             1.5484000    0.161417246830
      6   P      37             0.4613400    0.902230419976

      7   P      38             0.1313100    1.000000000000

      8   D      39             0.5500000    1.000000000000

 O         

     15   S      40          2306.7000000    0.005424388755
     15   S      41           347.1500000    0.040474749465
     15   S      42            78.8900000    0.180219634554
     15   S      43            21.8760000    0.462370311787
     15   S      44             6.6646000    0.454888396263

     16   S      45           347.1500000   -0.000655003786
     16   S      46            78.8900000   -0.005362052952
     16   S      47            21.8760000   -0.074902158894
     16   S      48             6.6646000   -0.181442579655
     16   S      49             1.0669000    1.102006874042

     17   S      50             0.3070000    1.000000000000

     18   P      51            17.0220000    0.068979967443
     18   P      52             3.6838000    0.351985516325
     18   P      53             0.9923400    0.724036547822

     19   P      54             0.2448700    1.000000000000

     20   D      55             1.0000000    1.000000000000

 TOTAL NUMBER OF BASIS SET SHELLS             =   20
 NUMBER OF CARTESIAN GAUSSIAN BASIS FUNCTIONS =   49
 NOTE: THIS RUN WILL RESTRICT THE MO VARIATION SPACE TO SPHERICAL HARMONICS.
 THE NUMBER OF ORBITALS KEPT IN THE VARIATIONAL SPACE WILL BE PRINTED LATER.
 NUMBER OF ELECTRONS                          =   32
 CHARGE OF MOLECULE                           =    0
 SPIN MULTIPLICITY                            =    1
 NUMBER OF OCCUPIED ORBITALS (ALPHA)          =   16
 NUMBER OF OCCUPIED ORBITALS (BETA )          =   16
 TOTAL NUMBER OF ATOMS                        =    3
 THE NUCLEAR REPULSION ENERGY IS      106.2781362495

     LEBEDEV GRID-BASED DFT OPTIONS
     ------------------------------
     DFTTYP=PBE     
     NRAD  =      96     NLEB  =     302
     NRAD0 =      24     NLEB0 =     110
     SWOFF =    5.00E-03 (PURE SCF -> DFT)
     SWITCH=    3.00E-04 (COARSE -> TIGHT GRID)
     THRESH=    0.00E+00 GTHRE=    1.00E+00

 GRIMME'S EMPIRICAL DISPERSION CORRECTION= F

     $CONTRL OPTIONS
     ---------------
 SCFTYP=RHF          RUNTYP=ENERGY       EXETYP=RUN     
 MPLEVL=       0     CITYP =NONE         CCTYP =NONE         VBTYP =NONE    
 DFTTYP=PBE          TDDFT =NONE    
 MULT  =       1     ICHARG=       0     NZVAR =       0     COORD =ZMT     
 PP    =NONE         RELWFN=NONE         LOCAL =NONE         NUMGRD=       F
 ISPHER=       1     NOSYM =       0     MAXIT =      30     UNITS =ANGS    
 PLTORB=       F     MOLPLT=       F     AIMPAC=       F     FRIEND=        
 NPRINT=       7     IREST =       0     GEOM  =INPUT   
 NORMF =       0     NORMP =       0     ITOL  =      20     ICUT  =       9
 INTTYP=BEST         GRDTYP=BEST         QMTTOL= 1.0E-06

     $SYSTEM OPTIONS
     ---------------
  REPLICATED MEMORY=     1000000 WORDS (ON EVERY NODE).
 DISTRIBUTED MEMDDI=           0 MILLION WORDS IN AGGREGATE,
 MEMDDI DISTRIBUTED OVER   1 PROCESSORS IS           0 WORDS/PROCESSOR.
 TOTAL MEMORY REQUESTED ON EACH PROCESSOR=     1000000 WORDS.
 TIMLIM=      525600.00 MINUTES, OR     365.0 DAYS.
 PARALL= F  BALTYP=  DLB     KDIAG=    0  COREFL= F
 MXSEQ2=     300 MXSEQ3=     150

          ----------------
          PROPERTIES INPUT
          ----------------

     MOMENTS            FIELD           POTENTIAL          DENSITY
 IEMOM =       1   IEFLD =       0   IEPOT =       0   IEDEN =       0
 WHERE =COMASS     WHERE =NUCLEI     WHERE =NUCLEI     WHERE =NUCLEI  
 OUTPUT=BOTH       OUTPUT=BOTH       OUTPUT=BOTH       OUTPUT=BOTH    
 IEMINT=       0   IEFINT=       0                     IEDINT=       0
                                                       MORB  =       0
          EXTRAPOLATION IN EFFECT
          DIIS IN EFFECT
 ORBITAL PRINTING OPTION: NPREO=     1    49     2     1

     -------------------------------
     INTEGRAL TRANSFORMATION OPTIONS
     -------------------------------
     NWORD  =            0
     CUTOFF = 1.0E-09     MPTRAN =       0
     DIRTRF =       F     AOINTS =DUP     

          ----------------------
          INTEGRAL INPUT OPTIONS
          ----------------------
 NOPK  =       1 NORDER=       0 SCHWRZ=       F

   --- ENCODED Z MATRIX ---
 COORD  TYPE   I   J   K   L   M   N
    1      1    3   1
    2      1    2   1
    3      2    2   1   3

 THE DETERMINANT OF THE G MATRIX IS 10**(    -4)

 THE DETERMINANT OF THE G MATRIX IS 10**(    -4)
 * * * WARNING * * *
 YOUR B MATRIX HAS A SMALL DETERMINANT.
 THIS SUGGESTS YOU MAY HAVE BADLY CHOSEN COORDINATES.

     ------------------------------------------
     THE POINT GROUP IS CNV, NAXIS= 2, ORDER= 4
     ------------------------------------------

 -- VARIATIONAL SPACE WILL BE RESTRICTED TO PURE SPHERICAL HARMONICS ONLY --
 AFTER EXCLUDING CONTAMINANT COMBINATIONS FROM THE CARTESIAN GAUSSIAN BASIS
 SET, THE NUMBER OF SPHERICAL HARMONICS KEPT IN THE VARIATION SPACE IS   46

     DIMENSIONS OF THE SYMMETRY SUBSPACES ARE
 A1  =   19     A2  =    5     B1  =   14     B2  =    8

 ..... DONE SETTING UP THE RUN .....
 STEP CPU TIME =     0.01 TOTAL CPU TIME =        0.0 (    0.0 MIN)
 TOTAL WALL CLOCK TIME=        0.0 SECONDS, CPU UTILIZATION IS  50.00%

          ********************
          1 ELECTRON INTEGRALS
          ********************
 ...... END OF ONE-ELECTRON INTEGRALS ......
 STEP CPU TIME =     0.01 TOTAL CPU TIME =        0.0 (    0.0 MIN)
 TOTAL WALL CLOCK TIME=        0.0 SECONDS, CPU UTILIZATION IS 100.00%

          -------------
          GUESS OPTIONS
          -------------
          GUESS =HUCKEL            NORB  =       0          NORDER=       0
          MIX   =       F          PRTMO =       F          PUNMO =       F
          TOLZ  = 1.0E-08          TOLE  = 1.0E-05
          SYMDEN=       F          PURIFY=       F

 INITIAL GUESS ORBITALS GENERATED BY HUCKEL   ROUTINE.
 HUCKEL GUESS REQUIRES     21583 WORDS.

 STATISTICS FOR GENERATION OF SYMMETRY ORBITAL -Q- MATRIX
 NUMBER OF CARTESIAN ATOMIC ORBITALS=         49
 NUMBER OF SPHERICAL CONTAMINANTS DROPPED=     3
 NUMBER OF LINEARLY DEPENDENT MOS DROPPED=     0
 TOTAL NUMBER OF MOS IN VARIATION SPACE=      46

 SYMMETRIES FOR INITIAL GUESS ORBITALS FOLLOW.   BOTH SET(S).
    16 ORBITALS ARE OCCUPIED (    7 CORE ORBITALS).
     8=?A1      9=?B1     10=A1      11=B2      12=A1      13=?B1     14=A2  
    15=B1      16=?A1     17=B2      18=B1      19=A1      20=A1      21=A1  
    22=A1      23=A1      24=A1      25=A1      26=A1  
 ...... END OF INITIAL ORBITAL SELECTION ......
 STEP CPU TIME =     0.00 TOTAL CPU TIME =        0.0 (    0.0 MIN)
 TOTAL WALL CLOCK TIME=        0.0 SECONDS, CPU UTILIZATION IS  66.67%

                    ----------------------
                    AO INTEGRAL TECHNOLOGY
                    ----------------------
     S,P,L SHELL ROTATED AXIS INTEGRALS, REPROGRAMMED BY
        KAZUYA ISHIMURA (IMS) AND JOSE SIERRA (SYNSTAR).
     S,P,D,L SHELL ROTATED AXIS INTEGRALS PROGRAMMED BY
        KAZUYA ISHIMURA (INSTITUTE FOR MOLECULAR SCIENCE).
     S,P,D,F,G SHELL TO TOTAL QUARTET ANGULAR MOMENTUM SUM 5,
        ERIC PROGRAM BY GRAHAM FLETCHER (ELORET AND NASA ADVANCED
        SUPERCOMPUTING DIVISION, AMES RESEARCH CENTER).
     S,P,D,F,G,L SHELL GENERAL RYS QUADRATURE PROGRAMMED BY
        MICHEL DUPUIS (PACIFIC NORTHWEST NATIONAL LABORATORY).

          --------------------
          2 ELECTRON INTEGRALS
          --------------------

 THE -PK- OPTION IS OFF, THE INTEGRALS ARE NOT IN SUPERMATRIX FORM.
 STORING   15000 INTEGRALS/RECORD ON DISK, USING 12 BYTES/INTEGRAL.
 TWO ELECTRON INTEGRAL EVALUATION REQUIRES   90606 WORDS OF MEMORY.
 II,JST,KST,LST =  1  1  1  1 NREC =         1 INTLOC =    1
 II,JST,KST,LST =  2  1  1  1 NREC =         1 INTLOC =    2
 II,JST,KST,LST =  3  1  1  1 NREC =         1 INTLOC =    7
 II,JST,KST,LST =  4  1  1  1 NREC =         1 INTLOC =   22
 II,JST,KST,LST =  5  1  1  1 NREC =         1 INTLOC =   56
 II,JST,KST,LST =  6  1  1  1 NREC =         1 INTLOC =  125
 II,JST,KST,LST =  7  1  1  1 NREC =         1 INTLOC =  329
 II,JST,KST,LST =  8  1  1  1 NREC =         1 INTLOC =  776
 II,JST,KST,LST =  9  1  1  1 NREC =         1 INTLOC = 2864
 II,JST,KST,LST = 10  1  1  1 NREC =         1 INTLOC = 2864
 II,JST,KST,LST = 11  1  1  1 NREC =         1 INTLOC = 2864
 II,JST,KST,LST = 12  1  1  1 NREC =         1 INTLOC = 2864
 II,JST,KST,LST = 13  1  1  1 NREC =         1 INTLOC = 2864
 II,JST,KST,LST = 14  1  1  1 NREC =         1 INTLOC = 2864
 II,JST,KST,LST = 15  1  1  1 NREC =         1 INTLOC = 2864
 II,JST,KST,LST = 16  1  1  1 NREC =         1 INTLOC = 5112
 II,JST,KST,LST = 17  1  1  1 NREC =         1 INTLOC = 8437
 II,JST,KST,LST = 18  1  1  1 NREC =         1 INTLOC =12907
 II,JST,KST,LST = 19  1  1  1 NREC =         3 INTLOC = 1226
 II,JST,KST,LST = 20  1  1  1 NREC =         5 INTLOC = 2662
 TOTAL NUMBER OF NONZERO TWO-ELECTRON INTEGRALS =              181887
         13 INTEGRAL RECORDS WERE STORED ON DISK FILE  8.
  ...... END OF TWO-ELECTRON INTEGRALS .....
 STEP CPU TIME =     0.16 TOTAL CPU TIME =        0.2 (    0.0 MIN)
 TOTAL WALL CLOCK TIME=        0.2 SECONDS, CPU UTILIZATION IS  94.74%

          --------------------------
               R-PBE SCF CALCULATION
          --------------------------

     NUCLEAR ENERGY =       106.2781362495
     MAXIT =   30     NPUNCH=    2
     EXTRAP=T  DAMP=F  SHIFT=F  RSTRCT=F  DIIS=T  DEM=F  SOSCF=F
         DENSITY MATRIX CONVERGENCE THRESHOLD=  1.00E-05
     COARSE -> FINE DFT GRID SWITCH THRESHOLD=  3.00E-04 (SWITCH IN $DFT)
                   HF -> DFT SWITCH THRESHOLD=  5.00E-03 (SWOFF IN $DFT)
     MEMORY REQUIRED FOR RHF ITERS=    183108 WORDS.

 DFT CODE IS SWITCHING FROM THE FINE GRID NRAD= 96,  NLEB=  302
                      TO THE COARSE GRID NRAD0= 24, NLEB0=  110

     EXCHANGE FUNCTIONAL   =PBE       
     CORRELATION FUNCTIONAL=PBE       
     DFT THRESHOLD         =.460E-07
     GRID CHANGE THRESHOLD =.300E-03
 FOR AN EULER-MACLAURIN QUADRATURE USING  96 RADIAL POINTS:
 SMALLEST GAUSSIAN PRIMITIVE EXPONENT=        0.1313100000 OF TYPE -P-
 ON ATOM NUMBER   1 HAS RADIAL NORMALIZATION=  1.000000
  LARGEST GAUSSIAN PRIMITIVE EXPONENT=    55510.0000000000 OF TYPE -S-
 ON ATOM NUMBER   1 HAS RADIAL NORMALIZATION=  0.999999
 DFT IS SWITCHED OFF, PERFORMING PURE SCF UNTIL SWOFF THRESHOLD IS REACHED.

 ITER EX DEM     TOTAL ENERGY        E CHANGE  DENSITY CHANGE    DIIS ERROR
   1  0  0     -546.0361623611  -546.0361623611   0.406284023   1.368591571
          * * *   INITIATING DIIS PROCEDURE   * * *
   2  1  0     -546.7843501215    -0.7481877603   0.373618845   0.279718288
   3  2  0     -546.8679036880    -0.0835535665   0.149391480   0.283227486
   4  3  0     -547.0497251258    -0.1818214378   0.010606604   0.011557332
   5  4  0     -547.0502154102    -0.0004902843   0.004108231   0.003292129
 CONVERGED TO SWOFF, SO DFT CALCULATION IS NOW SWITCHED ON.
          * * *   INITIATING DIIS PROCEDURE   * * *
   6  5  0     -548.2074406273    -1.1572252172   0.257992712   0.100315781
   7  6  0     -548.2002813709     0.0071592564   0.222255650   0.128157571
   8  7  0     -548.2074652402    -0.0071838692   0.075381794   0.135479930
   9  8  0     -548.2443496696    -0.0368844295   0.016191659   0.011643161
  10  9  0     -548.2448172736    -0.0004676040   0.001155659   0.000996588
  11 10  0     -548.2448208524    -0.0000035788   0.000512620   0.000541498
  12 11  0     -548.2448215235    -0.0000006710   0.000049496   0.000063634
 DFT CODE IS SWITCHING BACK TO THE FINE GRID
          * * *   INITIATING DIIS PROCEDURE   * * *
  13 12  0     -548.2115375427     0.0332839807   0.008524051   0.011367178
  14 13  0     -548.2118221193    -0.0002845766   0.002364217   0.002375471
  15 14  0     -548.2118186153     0.0000035041   0.003003275   0.003329112
  16 15  0     -548.2118309470    -0.0000123317   0.001524973   0.001688930
  17 16  0     -548.2118383688    -0.0000074219   0.000177361   0.000125810
  18 17  0     -548.2118384141    -0.0000000453   0.000025822   0.000012291
  19 18  0     -548.2118384145    -0.0000000004   0.000004046   0.000003857
  20 19  0     -548.2118384146     0.0000000000   0.000000151   0.000000128

          -----------------
          DENSITY CONVERGED
          -----------------
     TIME TO FORM FOCK OPERATORS=       4.5 SECONDS (       0.2 SEC/ITER)
     TIME TO SOLVE SCF EQUATIONS=       0.0 SECONDS (       0.0 SEC/ITER)

 FINAL R-PBE ENERGY IS     -548.2118384146 AFTER  20 ITERATIONS
 DFT EXCHANGE + CORRELATION ENERGY =       -42.5051606496
 TOTAL ELECTRON NUMBER             =        32.0000726842

          ------------
          EIGENVECTORS
          ------------

                      1          2          3          4          5
                  -88.2135   -18.7773   -18.7773    -7.8405    -5.8604
                     A1         B1         A1         A1         B2  
    1  S  1  S    1.002982   0.000000  -0.000078  -0.274038   0.000000
    2  S  1  S   -0.010262   0.000000  -0.000684   1.039614   0.000000
    3  S  1  S    0.001856   0.000000  -0.001542   0.041525   0.000000
    4  S  1  S   -0.000824   0.000000   0.010734  -0.012125   0.000000
    5  S  1  X    0.000000   0.000020   0.000000   0.000000   0.000000
    6  S  1  Y    0.000000   0.000000   0.000000   0.000000   0.996759
    7  S  1  Z    0.000038   0.000000  -0.000051   0.008282   0.000000
    8  S  1  X    0.000000  -0.001486   0.000000   0.000000   0.000000
    9  S  1  Y    0.000000   0.000000   0.000000   0.000000   0.009340
   10  S  1  Z    0.000149   0.000000   0.001503   0.001630   0.000000
   11  S  1  X    0.000000  -0.003339   0.000000   0.000000   0.000000
   12  S  1  Y    0.000000   0.000000   0.000000   0.000000  -0.000310
   13  S  1  Z   -0.000056   0.000000   0.005122  -0.000850   0.000000
   14  S  1 XX    0.000035   0.000000   0.000486   0.000377   0.000000
   15  S  1 YY   -0.000057   0.000000  -0.000874  -0.000473   0.000000
   16  S  1 ZZ    0.000021   0.000000   0.000389   0.000096   0.000000
   17  S  1 XY    0.000000   0.000000   0.000000   0.000000   0.000000
   18  S  1 XZ    0.000000  -0.000645   0.000000   0.000000   0.000000
   19  S  1 YZ    0.000000   0.000000   0.000000   0.000000   0.000433
   20  O  2  S    0.000010   0.703259   0.703273  -0.000050   0.000000
   21  O  2  S    0.000015   0.025885   0.025846  -0.000243   0.000000
   22  O  2  S   -0.000019  -0.011863  -0.013605   0.000546   0.000000
   23  O  2  X   -0.000030   0.000818   0.000549  -0.000286   0.000000
   24  O  2  Y    0.000000   0.000000   0.000000   0.000000   0.000056
   25  O  2  Z    0.000029  -0.000791  -0.000738   0.000272   0.000000
   26  O  2  X   -0.000087  -0.002576  -0.002447  -0.000672   0.000000
   27  O  2  Y    0.000000   0.000000   0.000000   0.000000  -0.000057
   28  O  2  Z    0.000106   0.002099   0.002498   0.000866   0.000000
   29  O  2 XX   -0.000034  -0.000378   0.000077  -0.000156   0.000000
   30  O  2 YY    0.000070   0.000404   0.000077   0.000322   0.000000
   31  O  2 ZZ   -0.000037  -0.000025  -0.000154  -0.000167   0.000000
   32  O  2 XY    0.000000   0.000000   0.000000   0.000000   0.000057
   33  O  2 XZ    0.000121   0.000285   0.000456   0.000536   0.000000
   34  O  2 YZ    0.000000   0.000000   0.000000   0.000000  -0.000071
   35  O  3  S    0.000010  -0.703259   0.703273  -0.000050   0.000000
   36  O  3  S    0.000015  -0.025885   0.025846  -0.000243   0.000000
   37  O  3  S   -0.000019   0.011863  -0.013605   0.000546   0.000000
   38  O  3  X    0.000030   0.000818  -0.000549   0.000286   0.000000
   39  O  3  Y    0.000000   0.000000   0.000000   0.000000   0.000056
   40  O  3  Z    0.000029   0.000791  -0.000738   0.000272   0.000000
   41  O  3  X    0.000087  -0.002576   0.002447   0.000672   0.000000
   42  O  3  Y    0.000000   0.000000   0.000000   0.000000  -0.000057
   43  O  3  Z    0.000106  -0.002099   0.002498   0.000866   0.000000
   44  O  3 XX   -0.000034   0.000378   0.000077  -0.000156   0.000000
   45  O  3 YY    0.000070  -0.000404   0.000077   0.000322   0.000000
   46  O  3 ZZ   -0.000037   0.000025  -0.000154  -0.000167   0.000000
   47  O  3 XY    0.000000   0.000000   0.000000   0.000000  -0.000057
   48  O  3 XZ   -0.000121   0.000285  -0.000456  -0.000536   0.000000
   49  O  3 YZ    0.000000   0.000000   0.000000   0.000000  -0.000071

                      6          7          8          9         10
                   -5.8603    -5.8557    -1.0447    -0.9082    -0.6041
                     B1         A1         A1         B1         A1  
    1  S  1  S    0.000000   0.002330   0.049416   0.000000   0.069090
    2  S  1  S    0.000000  -0.009074  -0.140903   0.000000  -0.194580
    3  S  1  S    0.000000  -0.000330   0.291544   0.000000   0.437766
    4  S  1  S    0.000000  -0.000236   0.134385   0.000000   0.433521
    5  S  1  X    0.996630   0.000000   0.000000   0.114259   0.000000
    6  S  1  Y    0.000000   0.000000   0.000000   0.000000   0.000000
    7  S  1  Z    0.000000   0.996679  -0.079782   0.000000   0.079560
    8  S  1  X    0.009536   0.000000   0.000000  -0.227078   0.000000
    9  S  1  Y    0.000000   0.000000   0.000000   0.000000   0.000000
   10  S  1  Z    0.000000   0.009208   0.151154   0.000000  -0.167217
   11  S  1  X   -0.000294   0.000000   0.000000  -0.033251   0.000000
   12  S  1  Y    0.000000   0.000000   0.000000   0.000000   0.000000
   13  S  1  Z    0.000000  -0.000346   0.001297   0.000000  -0.096788
   14  S  1 XX    0.000000  -0.000293   0.014516   0.000000   0.000075
   15  S  1 YY    0.000000  -0.000303  -0.033819   0.000000   0.021504
   16  S  1 ZZ    0.000000   0.000596   0.019304   0.000000  -0.021580
   17  S  1 XY    0.000000   0.000000   0.000000   0.000000   0.000000
   18  S  1 XZ    0.000704   0.000000   0.000000  -0.085442   0.000000
   19  S  1 YZ    0.000000   0.000000   0.000000   0.000000   0.000000
   20  O  2  S    0.000280  -0.000289  -0.119999  -0.149004   0.091508
   21  O  2  S   -0.000158   0.000131   0.236985   0.300243  -0.186923
   22  O  2  S   -0.000141   0.000404   0.263199   0.356064  -0.297120
   23  O  2  X   -0.000306   0.000414   0.091704   0.055173   0.047441
   24  O  2  Y    0.000000   0.000000   0.000000   0.000000   0.000000
   25  O  2  Z    0.000370  -0.000369  -0.079935  -0.088045  -0.107311
   26  O  2  X   -0.000083   0.000105   0.032105   0.021673   0.017571
   27  O  2  Y    0.000000   0.000000   0.000000   0.000000   0.000000
   28  O  2  Z    0.000036  -0.000246  -0.030705  -0.031905  -0.047179
   29  O  2 XX   -0.000056   0.000145   0.002470  -0.001567  -0.001069
   30  O  2 YY    0.000256  -0.000279  -0.005870  -0.002243  -0.004593
   31  O  2 ZZ   -0.000200   0.000134   0.003400   0.003810   0.005662
   32  O  2 XY    0.000000   0.000000   0.000000   0.000000   0.000000
   33  O  2 XZ    0.000417  -0.000511  -0.013138  -0.008505  -0.007183
   34  O  2 YZ    0.000000   0.000000   0.000000   0.000000   0.000000
   35  O  3  S   -0.000280  -0.000289  -0.119999   0.149004   0.091508
   36  O  3  S    0.000158   0.000131   0.236985  -0.300243  -0.186923
   37  O  3  S    0.000141   0.000404   0.263199  -0.356064  -0.297120
   38  O  3  X   -0.000306  -0.000414  -0.091704   0.055173  -0.047441
   39  O  3  Y    0.000000   0.000000   0.000000   0.000000   0.000000
   40  O  3  Z   -0.000370  -0.000369  -0.079935   0.088045  -0.107311
   41  O  3  X   -0.000083  -0.000105  -0.032105   0.021673  -0.017571
   42  O  3  Y    0.000000   0.000000   0.000000   0.000000   0.000000
   43  O  3  Z   -0.000036  -0.000246  -0.030705   0.031905  -0.047179
   44  O  3 XX    0.000056   0.000145   0.002470   0.001567  -0.001069
   45  O  3 YY   -0.000256  -0.000279  -0.005870   0.002243  -0.004593
   46  O  3 ZZ    0.000200   0.000134   0.003400  -0.003810   0.005662
   47  O  3 XY    0.000000   0.000000   0.000000   0.000000   0.000000
   48  O  3 XZ    0.000417   0.000511   0.013138  -0.008505   0.007183
   49  O  3 YZ    0.000000   0.000000   0.000000   0.000000   0.000000

                     11         12         13         14         15
                   -0.4377    -0.4267    -0.4188    -0.3074    -0.2946
                     B2         A1         B1         A1         A2  
    1  S  1  S    0.000000  -0.002572   0.000000   0.012795   0.000000
    2  S  1  S    0.000000   0.040731   0.000000  -0.061870   0.000000
    3  S  1  S    0.000000   0.028986   0.000000   0.050131   0.000000
    4  S  1  S    0.000000  -0.264448   0.000000   0.330089   0.000000
    5  S  1  X    0.000000   0.000000  -0.179296   0.000000   0.000000
    6  S  1  Y   -0.208927   0.000000   0.000000   0.000000   0.000000
    7  S  1  Z    0.000000  -0.184724   0.000000   0.095995   0.000000
    8  S  1  X    0.000000   0.000000   0.427420   0.000000   0.000000
    9  S  1  Y    0.489354   0.000000   0.000000   0.000000   0.000000
   10  S  1  Z    0.000000   0.434527   0.000000  -0.227499   0.000000
   11  S  1  X    0.000000   0.000000   0.131667   0.000000   0.000000
   12  S  1  Y    0.263445   0.000000   0.000000   0.000000   0.000000
   13  S  1  Z    0.000000   0.136819   0.000000  -0.097565   0.000000
   14  S  1 XX    0.000000  -0.043789   0.000000  -0.122835   0.000000
   15  S  1 YY    0.000000  -0.017603   0.000000   0.036493   0.000000
   16  S  1 ZZ    0.000000   0.061392   0.000000   0.086342   0.000000
   17  S  1 XY    0.000000   0.000000   0.000000   0.000000  -0.112911
   18  S  1 XZ    0.000000   0.000000   0.046637   0.000000   0.000000
   19  S  1 YZ    0.060562   0.000000   0.000000   0.000000   0.000000
   20  O  2  S    0.000000   0.052733  -0.066334  -0.001965   0.000000
   21  O  2  S    0.000000  -0.105070   0.131551   0.000193   0.000000
   22  O  2  S    0.000000  -0.191642   0.262585  -0.006131   0.000000
   23  O  2  X    0.000000   0.332437  -0.159297   0.138326   0.000000
   24  O  2  Y    0.292368   0.000000   0.000000   0.000000   0.472977
   25  O  2  Z    0.000000  -0.044048   0.317542   0.406936   0.000000
   26  O  2  X    0.000000   0.199917  -0.095194   0.104565   0.000000
   27  O  2  Y    0.170355   0.000000   0.000000   0.000000   0.341295
   28  O  2  Z    0.000000  -0.029963   0.175170   0.298966   0.000000
   29  O  2 XX    0.000000   0.015378   0.003417   0.012475   0.000000
   30  O  2 YY    0.000000  -0.006221   0.008083   0.004190   0.000000
   31  O  2 ZZ    0.000000  -0.009157  -0.011501  -0.016665   0.000000
   32  O  2 XY    0.015942   0.000000   0.000000   0.000000   0.012676
   33  O  2 XZ    0.000000  -0.009750   0.009019   0.008557   0.000000
   34  O  2 YZ   -0.015252   0.000000   0.000000   0.000000  -0.017444
   35  O  3  S    0.000000   0.052733   0.066334  -0.001965   0.000000
   36  O  3  S    0.000000  -0.105070  -0.131551   0.000193   0.000000
   37  O  3  S    0.000000  -0.191642  -0.262585  -0.006131   0.000000
   38  O  3  X    0.000000  -0.332437  -0.159297  -0.138326   0.000000
   39  O  3  Y    0.292368   0.000000   0.000000   0.000000  -0.472977
   40  O  3  Z    0.000000  -0.044048  -0.317542   0.406936   0.000000
   41  O  3  X    0.000000  -0.199917  -0.095194  -0.104565   0.000000
   42  O  3  Y    0.170355   0.000000   0.000000   0.000000  -0.341295
   43  O  3  Z    0.000000  -0.029963  -0.175170   0.298966   0.000000
   44  O  3 XX    0.000000   0.015378  -0.003417   0.012475   0.000000
   45  O  3 YY    0.000000  -0.006221  -0.008083   0.004190   0.000000
   46  O  3 ZZ    0.000000  -0.009157   0.011501  -0.016665   0.000000
   47  O  3 XY   -0.015942   0.000000   0.000000   0.000000   0.012676
   48  O  3 XZ    0.000000   0.009750   0.009019  -0.008557   0.000000
   49  O  3 YZ   -0.015252   0.000000   0.000000   0.000000   0.017444

                     16         17         18         19         20
                   -0.2387    -0.1837    -0.0536     0.0465     0.3390
                     B1         B2         B1         A1         B2  
    1  S  1  S    0.000000   0.000000   0.000000   0.027451   0.000000
    2  S  1  S    0.000000   0.000000   0.000000  -0.145036   0.000000
    3  S  1  S    0.000000   0.000000   0.000000   0.106894   0.000000
    4  S  1  S    0.000000   0.000000   0.000000   1.077502   0.000000
    5  S  1  X   -0.013805   0.000000  -0.177970   0.000000   0.000000
    6  S  1  Y    0.000000  -0.203934   0.000000   0.000000   0.285156
    7  S  1  Z    0.000000   0.000000   0.000000  -0.118142   0.000000
    8  S  1  X    0.025197   0.000000   0.449481   0.000000   0.000000
    9  S  1  Y    0.000000   0.514095   0.000000   0.000000  -1.098394
   10  S  1  Z    0.000000   0.000000   0.000000   0.300527   0.000000
   11  S  1  X    0.189516   0.000000   0.843352   0.000000   0.000000
   12  S  1  Y    0.000000   0.476539   0.000000   0.000000   1.228842
   13  S  1  Z    0.000000   0.000000   0.000000   1.164027   0.000000
   14  S  1 XX    0.000000   0.000000   0.000000  -0.077196   0.000000
   15  S  1 YY    0.000000   0.000000   0.000000   0.247476   0.000000
   16  S  1 ZZ    0.000000   0.000000   0.000000  -0.170281   0.000000
   17  S  1 XY    0.000000   0.000000   0.000000   0.000000   0.000000
   18  S  1 XZ   -0.100930   0.000000  -0.221209   0.000000   0.000000
   19  S  1 YZ    0.000000  -0.103565   0.000000   0.000000  -0.232162
   20  O  2  S   -0.011778   0.000000  -0.033975   0.059385   0.000000
   21  O  2  S    0.026008   0.000000   0.055174  -0.075721   0.000000
   22  O  2  S    0.089185   0.000000   0.342817  -0.701666   0.000000
   23  O  2  X    0.464135   0.000000  -0.016942  -0.214572   0.000000
   24  O  2  Y    0.000000  -0.367917   0.000000   0.000000   0.013731
   25  O  2  Z    0.163182   0.000000  -0.325491   0.150472   0.000000
   26  O  2  X    0.326860   0.000000  -0.024615  -0.370850   0.000000
   27  O  2  Y    0.000000  -0.328432   0.000000   0.000000  -0.117704
   28  O  2  Z    0.113745   0.000000  -0.315770   0.183892   0.000000
   29  O  2 XX    0.015516   0.000000  -0.001028  -0.005097   0.000000
   30  O  2 YY   -0.000677   0.000000   0.002867   0.009818   0.000000
   31  O  2 ZZ   -0.014839   0.000000  -0.001839  -0.004721   0.000000
   32  O  2 XY    0.000000  -0.005259   0.000000   0.000000  -0.028213
   33  O  2 XZ   -0.009789   0.000000   0.001322  -0.002921   0.000000
   34  O  2 YZ    0.000000   0.001514   0.000000   0.000000   0.019211
   35  O  3  S    0.011778   0.000000   0.033975   0.059385   0.000000
   36  O  3  S   -0.026008   0.000000  -0.055174  -0.075721   0.000000
   37  O  3  S   -0.089185   0.000000  -0.342817  -0.701666   0.000000
   38  O  3  X    0.464135   0.000000  -0.016942   0.214572   0.000000
   39  O  3  Y    0.000000  -0.367917   0.000000   0.000000   0.013731
   40  O  3  Z   -0.163182   0.000000   0.325491   0.150472   0.000000
   41  O  3  X    0.326860   0.000000  -0.024615   0.370850   0.000000
   42  O  3  Y    0.000000  -0.328432   0.000000   0.000000  -0.117704
   43  O  3  Z   -0.113745   0.000000   0.315770   0.183892   0.000000
   44  O  3 XX   -0.015516   0.000000   0.001028  -0.005097   0.000000
   45  O  3 YY    0.000677   0.000000  -0.002867   0.009818   0.000000
   46  O  3 ZZ    0.014839   0.000000   0.001839  -0.004721   0.000000
   47  O  3 XY    0.000000   0.005259   0.000000   0.000000   0.028213
   48  O  3 XZ   -0.009789   0.000000   0.001322   0.002921   0.000000
   49  O  3 YZ    0.000000   0.001514   0.000000   0.000000   0.019211

                     21         22         23         24         25
                    0.3689     0.3828     0.4053     0.5184     0.5366
                     A1         B1         A1         A2         B2  
    1  S  1  S    0.023139   0.000000  -0.114627   0.000000   0.000000
    2  S  1  S    0.070588   0.000000  -0.409865   0.000000   0.000000
    3  S  1  S    0.345553   0.000000  -1.758697   0.000000   0.000000
    4  S  1  S   -0.269470   0.000000   2.337813   0.000000   0.000000
    5  S  1  X    0.000000   0.290373   0.000000   0.000000   0.000000
    6  S  1  Y    0.000000   0.000000   0.000000   0.000000   0.068228
    7  S  1  Z    0.293788   0.000000   0.059336   0.000000   0.000000
    8  S  1  X    0.000000  -1.079866   0.000000   0.000000   0.000000
    9  S  1  Y    0.000000   0.000000   0.000000   0.000000  -0.285637
   10  S  1  Z   -1.089977   0.000000  -0.188563   0.000000   0.000000
   11  S  1  X    0.000000   1.421862   0.000000   0.000000   0.000000
   12  S  1  Y    0.000000   0.000000   0.000000   0.000000   0.316522
   13  S  1  Z    1.179525   0.000000   0.626488   0.000000   0.000000
   14  S  1 XX    0.278949   0.000000   0.027158   0.000000   0.000000
   15  S  1 YY   -0.262449   0.000000   0.086673   0.000000   0.000000
   16  S  1 ZZ   -0.016500   0.000000  -0.113831   0.000000   0.000000
   17  S  1 XY    0.000000   0.000000   0.000000   0.932193   0.000000
   18  S  1 XZ    0.000000   0.223861   0.000000   0.000000   0.000000
   19  S  1 YZ    0.000000   0.000000   0.000000   0.000000   0.869601
   20  O  2  S   -0.003804  -0.009689   0.016470   0.000000   0.000000
   21  O  2  S    0.080098  -0.046636  -0.005175   0.000000   0.000000
   22  O  2  S   -0.296505   0.447308  -0.534719   0.000000   0.000000
   23  O  2  X    0.166961  -0.210226   0.184341   0.000000   0.000000
   24  O  2  Y    0.000000   0.000000   0.000000   0.287039  -0.340329
   25  O  2  Z   -0.098250   0.113525  -0.149619   0.000000   0.000000
   26  O  2  X   -0.036975   0.015232  -0.153203   0.000000   0.000000
   27  O  2  Y    0.000000   0.000000   0.000000  -0.053564   0.074317
   28  O  2  Z   -0.045987  -0.134094   0.108770   0.000000   0.000000
   29  O  2 XX   -0.031855  -0.007150  -0.030952   0.000000   0.000000
   30  O  2 YY    0.008456  -0.022372   0.038975   0.000000   0.000000
   31  O  2 ZZ    0.023399   0.029522  -0.008024   0.000000   0.000000
   32  O  2 XY    0.000000   0.000000   0.000000  -0.015437   0.043887
   33  O  2 XZ    0.019926  -0.035461   0.049307   0.000000   0.000000
   34  O  2 YZ    0.000000   0.000000   0.000000   0.048792  -0.011008
   35  O  3  S   -0.003804   0.009689   0.016470   0.000000   0.000000
   36  O  3  S    0.080098   0.046636  -0.005175   0.000000   0.000000
   37  O  3  S   -0.296505  -0.447308  -0.534719   0.000000   0.000000
   38  O  3  X   -0.166961  -0.210226  -0.184341   0.000000   0.000000
   39  O  3  Y    0.000000   0.000000   0.000000  -0.287039  -0.340329
   40  O  3  Z   -0.098250  -0.113525  -0.149619   0.000000   0.000000
   41  O  3  X    0.036975   0.015232   0.153203   0.000000   0.000000
   42  O  3  Y    0.000000   0.000000   0.000000   0.053564   0.074317
   43  O  3  Z   -0.045987   0.134094   0.108770   0.000000   0.000000
   44  O  3 XX   -0.031855   0.007150  -0.030952   0.000000   0.000000
   45  O  3 YY    0.008456   0.022372   0.038975   0.000000   0.000000
   46  O  3 ZZ    0.023399  -0.029522  -0.008024   0.000000   0.000000
   47  O  3 XY    0.000000   0.000000   0.000000  -0.015437  -0.043887
   48  O  3 XZ   -0.019926  -0.035461  -0.049307   0.000000   0.000000
   49  O  3 YZ    0.000000   0.000000   0.000000  -0.048792  -0.011008

                     26         27         28         29         30
                    0.5723     0.6412     0.6852     0.7747     0.8197
                     A1         A1         B1         A1         B2  
    1  S  1  S    0.002183   0.002495   0.000000   0.003374   0.000000
    2  S  1  S    0.012752  -0.078313   0.000000   0.031023   0.000000
    3  S  1  S    0.036761  -0.059012   0.000000   0.074244   0.000000
    4  S  1  S   -0.211844   1.456624   0.000000  -0.256016   0.000000
    5  S  1  X    0.000000   0.000000  -0.127871   0.000000   0.000000
    6  S  1  Y    0.000000   0.000000   0.000000   0.000000  -0.024738
    7  S  1  Z   -0.062943  -0.126647   0.000000  -0.006149   0.000000
    8  S  1  X    0.000000   0.000000   0.674462   0.000000   0.000000
    9  S  1  Y    0.000000   0.000000   0.000000   0.000000   0.099582
   10  S  1  Z    0.233645   0.610772   0.000000   0.008227   0.000000
   11  S  1  X    0.000000   0.000000   0.216480   0.000000   0.000000
   12  S  1  Y    0.000000   0.000000   0.000000   0.000000  -0.665876
   13  S  1  Z   -0.398969   0.374573   0.000000  -0.469372   0.000000
   14  S  1 XX    0.775347   0.425582   0.000000   0.358661   0.000000
   15  S  1 YY   -0.026818  -0.784968   0.000000   0.086701   0.000000
   16  S  1 ZZ   -0.748530   0.359386   0.000000  -0.445362   0.000000
   17  S  1 XY    0.000000   0.000000   0.000000   0.000000   0.000000
   18  S  1 XZ    0.000000   0.000000   0.658341   0.000000   0.000000
   19  S  1 YZ    0.000000   0.000000   0.000000   0.000000  -0.472602
   20  O  2  S   -0.004483   0.064402  -0.065121  -0.000683   0.000000
   21  O  2  S   -0.006312  -0.199825   0.182953  -0.033141   0.000000
   22  O  2  S    0.147227  -0.541667   0.422507   0.180289   0.000000
   23  O  2  X    0.165500   0.108134  -0.212532  -0.417769   0.000000
   24  O  2  Y    0.000000   0.000000   0.000000   0.000000  -0.559316
   25  O  2  Z    0.323538  -0.155548   0.192214  -0.387229   0.000000
   26  O  2  X    0.062900  -0.623009   0.810602   0.576624   0.000000
   27  O  2  Y    0.000000   0.000000   0.000000   0.000000   0.882588
   28  O  2  Z   -0.080833   0.678740  -0.723553   0.482872   0.000000
   29  O  2 XX   -0.048223   0.010369  -0.003824  -0.030298   0.000000
   30  O  2 YY   -0.009792  -0.018479   0.005404  -0.015018   0.000000
   31  O  2 ZZ    0.058016   0.008110  -0.001581   0.045316   0.000000
   32  O  2 XY    0.000000   0.000000   0.000000   0.000000  -0.030701
   33  O  2 XZ   -0.008144   0.004168   0.009410   0.010911   0.000000
   34  O  2 YZ    0.000000   0.000000   0.000000   0.000000   0.040740
   35  O  3  S   -0.004483   0.064402   0.065121  -0.000683   0.000000
   36  O  3  S   -0.006312  -0.199825  -0.182953  -0.033141   0.000000
   37  O  3  S    0.147227  -0.541667  -0.422507   0.180289   0.000000
   38  O  3  X   -0.165500  -0.108134  -0.212532   0.417769   0.000000
   39  O  3  Y    0.000000   0.000000   0.000000   0.000000  -0.559316
   40  O  3  Z    0.323538  -0.155548  -0.192214  -0.387229   0.000000
   41  O  3  X   -0.062900   0.623009   0.810602  -0.576624   0.000000
   42  O  3  Y    0.000000   0.000000   0.000000   0.000000   0.882588
   43  O  3  Z   -0.080833   0.678740   0.723553   0.482872   0.000000
   44  O  3 XX   -0.048223   0.010369   0.003824  -0.030298   0.000000
   45  O  3 YY   -0.009792  -0.018479  -0.005404  -0.015018   0.000000
   46  O  3 ZZ    0.058016   0.008110   0.001581   0.045316   0.000000
   47  O  3 XY    0.000000   0.000000   0.000000   0.000000   0.030701
   48  O  3 XZ    0.008144  -0.004168   0.009410  -0.010911   0.000000
   49  O  3 YZ    0.000000   0.000000   0.000000   0.000000   0.040740

                     31         32         33         34         35
                    0.8259     0.9086     0.9240     1.0515     1.5995
                     A2         A1         B1         B1         B1  
    1  S  1  S    0.000000   0.029313   0.000000   0.000000   0.000000
    2  S  1  S    0.000000   0.253654   0.000000   0.000000   0.000000
    3  S  1  S    0.000000   0.656751   0.000000   0.000000   0.000000
    4  S  1  S    0.000000  -0.525884   0.000000   0.000000   0.000000
    5  S  1  X    0.000000   0.000000  -0.026062  -0.049363  -0.029197
    6  S  1  Y    0.000000   0.000000   0.000000   0.000000   0.000000
    7  S  1  Z    0.000000   0.026179   0.000000   0.000000   0.000000
    8  S  1  X    0.000000   0.000000   0.075067   0.051899   0.268529
    9  S  1  Y    0.000000   0.000000   0.000000   0.000000   0.000000
   10  S  1  Z    0.000000   0.102811   0.000000   0.000000   0.000000
   11  S  1  X    0.000000   0.000000  -0.649059   0.564349   0.670693
   12  S  1  Y    0.000000   0.000000   0.000000   0.000000   0.000000
   13  S  1  Z    0.000000  -0.369572   0.000000   0.000000   0.000000
   14  S  1 XX    0.000000  -0.249089   0.000000   0.000000   0.000000
   15  S  1 YY    0.000000   0.645237   0.000000   0.000000   0.000000
   16  S  1 ZZ    0.000000  -0.396148   0.000000   0.000000   0.000000
   17  S  1 XY    0.389140   0.000000   0.000000   0.000000   0.000000
   18  S  1 XZ    0.000000   0.000000   0.086810   0.990474   0.241642
   19  S  1 YZ    0.000000   0.000000   0.000000   0.000000   0.000000
   20  O  2  S    0.000000  -0.022316  -0.006181  -0.030388   0.008137
   21  O  2  S    0.000000   0.170545   0.088119   0.053677  -1.158032
   22  O  2  S    0.000000   0.151251  -0.186292   0.413436   1.659772
   23  O  2  X    0.000000   0.451338  -0.355420   0.462124  -0.050600
   24  O  2  Y   -0.587824   0.000000   0.000000   0.000000   0.000000
   25  O  2  Z    0.000000  -0.372873  -0.522536  -0.355857   0.012874
   26  O  2  X    0.000000  -0.339403   0.654703  -0.343083   0.414929
   27  O  2  Y    0.831219   0.000000   0.000000   0.000000   0.000000
   28  O  2  Z    0.000000   0.425651   0.793995  -0.005520  -0.350749
   29  O  2 XX    0.000000  -0.031283  -0.053397   0.047212  -0.178792
   30  O  2 YY    0.000000  -0.003179   0.020925  -0.024155   0.196152
   31  O  2 ZZ    0.000000   0.034462   0.032472  -0.023057  -0.017360
   32  O  2 XY   -0.044708   0.000000   0.000000   0.000000   0.000000
   33  O  2 XZ    0.000000  -0.061417  -0.019529   0.022136   0.119468
   34  O  2 YZ    0.033111   0.000000   0.000000   0.000000   0.000000
   35  O  3  S    0.000000  -0.022316   0.006181   0.030388  -0.008137
   36  O  3  S    0.000000   0.170545  -0.088119  -0.053677   1.158032
   37  O  3  S    0.000000   0.151251   0.186292  -0.413436  -1.659772
   38  O  3  X    0.000000  -0.451338  -0.355420   0.462124  -0.050600
   39  O  3  Y    0.587824   0.000000   0.000000   0.000000   0.000000
   40  O  3  Z    0.000000  -0.372873   0.522536   0.355857  -0.012874
   41  O  3  X    0.000000   0.339403   0.654703  -0.343083   0.414929
   42  O  3  Y   -0.831219   0.000000   0.000000   0.000000   0.000000
   43  O  3  Z    0.000000   0.425651  -0.793995   0.005520   0.350749
   44  O  3 XX    0.000000  -0.031283   0.053397  -0.047212   0.178792
   45  O  3 YY    0.000000  -0.003179  -0.020925   0.024155  -0.196152
   46  O  3 ZZ    0.000000   0.034462  -0.032472   0.023057   0.017360
   47  O  3 XY   -0.044708   0.000000   0.000000   0.000000   0.000000
   48  O  3 XZ    0.000000   0.061417  -0.019529   0.022136   0.119468
   49  O  3 YZ   -0.033111   0.000000   0.000000   0.000000   0.000000

                     36         37         38         39         40
                    1.6278     2.0796     2.0898     2.0977     2.1119
                     A1         B2         B1         A1         A2  
    1  S  1  S   -0.026415   0.000000   0.000000   0.008427   0.000000
    2  S  1  S   -0.273581   0.000000   0.000000   0.060867   0.000000
    3  S  1  S   -0.613539   0.000000   0.000000   0.166319   0.000000
    4  S  1  S    2.418653   0.000000   0.000000  -0.558663   0.000000
    5  S  1  X    0.000000   0.000000  -0.019201   0.000000   0.000000
    6  S  1  Y    0.000000  -0.005889   0.000000   0.000000   0.000000
    7  S  1  Z   -0.051006   0.000000   0.000000  -0.007146   0.000000
    8  S  1  X    0.000000   0.000000   0.055836   0.000000   0.000000
    9  S  1  Y    0.000000   0.017855   0.000000   0.000000   0.000000
   10  S  1  Z    0.328093   0.000000   0.000000  -0.004846   0.000000
   11  S  1  X    0.000000   0.000000   0.077081   0.000000   0.000000
   12  S  1  Y    0.000000   0.043040   0.000000   0.000000   0.000000
   13  S  1  Z    1.126751   0.000000   0.000000  -0.292112   0.000000
   14  S  1 XX    0.151069   0.000000   0.000000  -0.020118   0.000000
   15  S  1 YY   -0.402531   0.000000   0.000000  -0.041085   0.000000
   16  S  1 ZZ    0.251462   0.000000   0.000000   0.061203   0.000000
   17  S  1 XY    0.000000   0.000000   0.000000   0.000000  -0.006129
   18  S  1 XZ    0.000000   0.000000  -0.045693   0.000000   0.000000
   19  S  1 YZ    0.000000  -0.028686   0.000000   0.000000   0.000000
   20  O  2  S    0.004319   0.000000  -0.000391   0.000124   0.000000
   21  O  2  S    1.189505   0.000000  -0.043297  -0.272047   0.000000
   22  O  2  S   -2.196917   0.000000   0.071606   0.482179   0.000000
   23  O  2  X   -0.078017   0.000000   0.018181  -0.035029   0.000000
   24  O  2  Y    0.000000   0.031552   0.000000   0.000000  -0.035648
   25  O  2  Z    0.015720   0.000000   0.013737   0.006622   0.000000
   26  O  2  X   -0.413867   0.000000  -0.021329   0.134976   0.000000
   27  O  2  Y    0.000000  -0.052004   0.000000   0.000000   0.055827
   28  O  2  Z    0.413298   0.000000  -0.028770  -0.076644   0.000000
   29  O  2 XX   -0.067300   0.000000  -0.127823  -0.418956   0.000000
   30  O  2 YY    0.027749   0.000000  -0.467073   0.633069   0.000000
   31  O  2 ZZ    0.039551   0.000000   0.594896  -0.214112   0.000000
   32  O  2 XY    0.000000   0.441073   0.000000   0.000000   0.582918
   33  O  2 XZ   -0.204339   0.000000   0.333729  -0.267705   0.000000
   34  O  2 YZ    0.000000   0.552183   0.000000   0.000000   0.402613
   35  O  3  S    0.004319   0.000000   0.000391   0.000124   0.000000
   36  O  3  S    1.189505   0.000000   0.043297  -0.272047   0.000000
   37  O  3  S   -2.196917   0.000000  -0.071606   0.482179   0.000000
   38  O  3  X    0.078017   0.000000   0.018181   0.035029   0.000000
   39  O  3  Y    0.000000   0.031552   0.000000   0.000000   0.035648
   40  O  3  Z    0.015720   0.000000  -0.013737   0.006622   0.000000
   41  O  3  X    0.413867   0.000000  -0.021329  -0.134976   0.000000
   42  O  3  Y    0.000000  -0.052004   0.000000   0.000000  -0.055827
   43  O  3  Z    0.413298   0.000000   0.028770  -0.076644   0.000000
   44  O  3 XX   -0.067300   0.000000   0.127823  -0.418956   0.000000
   45  O  3 YY    0.027749   0.000000   0.467073   0.633069   0.000000
   46  O  3 ZZ    0.039551   0.000000  -0.594896  -0.214112   0.000000
   47  O  3 XY    0.000000  -0.441073   0.000000   0.000000   0.582918
   48  O  3 XZ    0.204339   0.000000   0.333729   0.267705   0.000000
   49  O  3 YZ    0.000000   0.552183   0.000000   0.000000  -0.402613

                     41         42         43         44         45
                    2.2125     2.2856     2.3099     2.3527     2.7539
                     A2         B2         B1         A1         A1  
    1  S  1  S    0.000000   0.000000   0.000000  -0.004134  -0.039722
    2  S  1  S    0.000000   0.000000   0.000000  -0.018341   0.008656
    3  S  1  S    0.000000   0.000000   0.000000  -0.074123  -0.482133
    4  S  1  S    0.000000   0.000000   0.000000  -0.072070  -1.126999
    5  S  1  X    0.000000   0.000000   0.034288   0.000000   0.000000
    6  S  1  Y    0.000000   0.057780   0.000000   0.000000   0.000000
    7  S  1  Z    0.000000   0.000000   0.000000  -0.031675   0.164067
    8  S  1  X    0.000000   0.000000  -0.058726   0.000000   0.000000
    9  S  1  Y    0.000000  -0.184046   0.000000   0.000000   0.000000
   10  S  1  Z    0.000000   0.000000   0.000000   0.056122  -0.881287
   11  S  1  X    0.000000   0.000000  -0.092883   0.000000   0.000000
   12  S  1  Y    0.000000  -0.162258   0.000000   0.000000   0.000000
   13  S  1  Z    0.000000   0.000000   0.000000   0.092864  -0.363963
   14  S  1 XX    0.000000   0.000000   0.000000  -0.454302  -0.181655
   15  S  1 YY    0.000000   0.000000   0.000000   0.014167   0.415888
   16  S  1 ZZ    0.000000   0.000000   0.000000   0.440136  -0.234234
   17  S  1 XY   -0.373798   0.000000   0.000000   0.000000   0.000000
   18  S  1 XZ    0.000000   0.000000  -0.077024   0.000000   0.000000
   19  S  1 YZ    0.000000  -0.389327   0.000000   0.000000   0.000000
   20  O  2  S    0.000000   0.000000   0.003456   0.002336  -0.026661
   21  O  2  S    0.000000   0.000000  -0.263822  -0.117822  -0.558112
   22  O  2  S    0.000000   0.000000   0.282005   0.118161   1.219965
   23  O  2  X    0.000000   0.000000  -0.155797  -0.030658   0.008107
   24  O  2  Y    0.055182  -0.044145   0.000000   0.000000   0.000000
   25  O  2  Z    0.000000   0.000000  -0.027978   0.046813  -0.000830
   26  O  2  X    0.000000   0.000000   0.325089  -0.019699   0.485877
   27  O  2  Y   -0.136775   0.167220   0.000000   0.000000   0.000000
   28  O  2  Z    0.000000   0.000000   0.095092  -0.167664  -0.477563
   29  O  2 XX    0.000000   0.000000   0.661417  -0.572611   0.218143
   30  O  2 YY    0.000000   0.000000  -0.310711  -0.128227  -0.351748
   31  O  2 ZZ    0.000000   0.000000  -0.350706   0.700838   0.133605
   32  O  2 XY   -0.416380   0.576178   0.000000   0.000000   0.000000
   33  O  2 XZ    0.000000   0.000000   0.270618   0.030341  -0.721094
   34  O  2 YZ    0.598070  -0.464279   0.000000   0.000000   0.000000
   35  O  3  S    0.000000   0.000000  -0.003456   0.002336  -0.026661
   36  O  3  S    0.000000   0.000000   0.263822  -0.117822  -0.558112
   37  O  3  S    0.000000   0.000000  -0.282005   0.118161   1.219965
   38  O  3  X    0.000000   0.000000  -0.155797   0.030658  -0.008107
   39  O  3  Y   -0.055182  -0.044145   0.000000   0.000000   0.000000
   40  O  3  Z    0.000000   0.000000   0.027978   0.046813  -0.000830
   41  O  3  X    0.000000   0.000000   0.325089   0.019699  -0.485877
   42  O  3  Y    0.136775   0.167220   0.000000   0.000000   0.000000
   43  O  3  Z    0.000000   0.000000  -0.095092  -0.167664  -0.477563
   44  O  3 XX    0.000000   0.000000  -0.661417  -0.572611   0.218143
   45  O  3 YY    0.000000   0.000000   0.310711  -0.128227  -0.351748
   46  O  3 ZZ    0.000000   0.000000   0.350706   0.700838   0.133605
   47  O  3 XY   -0.416380  -0.576178   0.000000   0.000000   0.000000
   48  O  3 XZ    0.000000   0.000000   0.270618  -0.030341   0.721094
   49  O  3 YZ   -0.598070  -0.464279   0.000000   0.000000   0.000000

                     46
                    2.8210
                     B1  
    1  S  1  S    0.000000
    2  S  1  S    0.000000
    3  S  1  S    0.000000
    4  S  1  S    0.000000
    5  S  1  X   -0.181988
    6  S  1  Y    0.000000
    7  S  1  Z    0.000000
    8  S  1  X    0.984090
    9  S  1  Y    0.000000
   10  S  1  Z    0.000000
   11  S  1  X    0.379051
   12  S  1  Y    0.000000
   13  S  1  Z    0.000000
   14  S  1 XX    0.000000
   15  S  1 YY    0.000000
   16  S  1 ZZ    0.000000
   17  S  1 XY    0.000000
   18  S  1 XZ    0.803149
   19  S  1 YZ    0.000000
   20  O  2  S   -0.035041
   21  O  2  S   -0.640716
   22  O  2  S    1.355618
   23  O  2  X    0.016850
   24  O  2  Y    0.000000
   25  O  2  Z   -0.041705
   26  O  2  X    0.589141
   27  O  2  Y    0.000000
   28  O  2  Z   -0.544133
   29  O  2 XX    0.228533
   30  O  2 YY   -0.464750
   31  O  2 ZZ    0.236217
   32  O  2 XY    0.000000
   33  O  2 XZ   -0.691541
   34  O  2 YZ    0.000000
   35  O  3  S    0.035041
   36  O  3  S    0.640716
   37  O  3  S   -1.355618
   38  O  3  X    0.016850
   39  O  3  Y    0.000000
   40  O  3  Z    0.041705
   41  O  3  X    0.589141
   42  O  3  Y    0.000000
   43  O  3  Z    0.544133
   44  O  3 XX   -0.228533
   45  O  3 YY    0.464750
   46  O  3 ZZ   -0.236217
   47  O  3 XY    0.000000
   48  O  3 XZ   -0.691541
   49  O  3 YZ    0.000000
 ...... END OF RHF CALCULATION ......
 STEP CPU TIME =     4.50 TOTAL CPU TIME =        4.7 (    0.1 MIN)
 TOTAL WALL CLOCK TIME=        4.7 SECONDS, CPU UTILIZATION IS  99.79%

     ---------------------------------------------------------------------
     PROPERTIES FOR THE PBE      DFT FUNCTIONAL (RHF  TYPE) DENSITY MATRIX
     ---------------------------------------------------------------------

          -----------------
          ENERGY COMPONENTS
          -----------------

         WAVEFUNCTION NORMALIZATION =       1.0000000000

                ONE ELECTRON ENERGY =    -967.0655769758
                TWO ELECTRON ENERGY =     312.5756023117
           NUCLEAR REPULSION ENERGY =     106.2781362495
                                      ------------------
                       TOTAL ENERGY =    -548.2118384146

 ELECTRON-ELECTRON POTENTIAL ENERGY =     312.5756023117
  NUCLEUS-ELECTRON POTENTIAL ENERGY =   -1514.8078634255
   NUCLEUS-NUCLEUS POTENTIAL ENERGY =     106.2781362495
                                      ------------------
             TOTAL POTENTIAL ENERGY =   -1095.9541248643
               TOTAL KINETIC ENERGY =     547.7422864497
                 VIRIAL RATIO (V/T) =       2.0008572498

          ---------------------------------------
          MULLIKEN AND LOWDIN POPULATION ANALYSES
          ---------------------------------------

     ATOMIC MULLIKEN POPULATION IN EACH MOLECULAR ORBITAL

                      1          2          3          4          5

                  2.000000   2.000000   2.000000   2.000000   2.000000

    1             2.000014   0.000659   0.001941   2.000764   2.000003
    2            -0.000007   0.999671   0.999030  -0.000382  -0.000002
    3            -0.000007   0.999671   0.999030  -0.000382  -0.000002

                      6          7          8          9         10

                  2.000000   2.000000   2.000000   2.000000   2.000000

    1             1.999886   1.999818   0.683897   0.337008   1.253261
    2             0.000057   0.000091   0.658052   0.831496   0.373370
    3             0.000057   0.000091   0.658052   0.831496   0.373370

                     11         12         13         14         15

                  2.000000   2.000000   2.000000   2.000000   2.000000

    1             1.094451   0.706130   0.517435   0.349718   0.073841
    2             0.452775   0.646935   0.741282   0.825141   0.963080
    3             0.452775   0.646935   0.741282   0.825141   0.963080

                     16

                  2.000000

    1             0.179596
    2             0.910202
    3             0.910202

               ----- POPULATIONS IN EACH AO -----
                             MULLIKEN      LOWDIN
              1  S  1  S      2.00023     1.99583
              2  S  1  S      2.01015     1.96477
              3  S  1  S      0.97407     0.59289
              4  S  1  S      0.83266     0.54114
              5  S  1  X      1.99639     1.95467
              6  S  1  Y      1.99607     1.95529
              7  S  1  Z      1.99708     1.96110
              8  S  1  X      0.68319     0.62153
              9  S  1  Y      0.67850     0.63624
             10  S  1  Z      0.83431     0.79086
             11  S  1  X      0.22290     0.31600
             12  S  1  Y      0.39807     0.44764
             13  S  1  Z      0.20879     0.37927
             14  S  1 XX      0.07503     0.26513
             15  S  1 YY      0.06322     0.23499
             16  S  1 ZZ      0.07384     0.26867
             17  S  1 XY      0.13211     0.08828
             18  S  1 XZ      0.02181     0.16538
             19  S  1 YZ      0.00000     0.02084
             20  O  2  S      1.99798     1.98070
             21  O  2  S      0.83400     0.65110
             22  O  2  S      1.05887     0.56377
             23  O  2  X      1.06401     1.03183
             24  O  2  Y      0.85354     0.82058
             25  O  2  Z      0.91407     0.88081
             26  O  2  X      0.57000     0.62270
             27  O  2  Y      0.55596     0.59665
             28  O  2  Z      0.53250     0.62027
             29  O  2 XX      0.00431     0.20112
             30  O  2 YY      0.00236     0.20588
             31  O  2 ZZ      0.00293     0.20421
             32  O  2 XY      0.00683     0.00424
             33  O  2 XZ      0.00341     0.01148
             34  O  2 YZ      0.00000     0.00438
             35  O  3  S      1.99798     1.98070
             36  O  3  S      0.83400     0.65110
             37  O  3  S      1.05887     0.56377
             38  O  3  X      1.06401     1.03183
             39  O  3  Y      0.85354     0.82058
             40  O  3  Z      0.91407     0.88081
             41  O  3  X      0.57000     0.62270
             42  O  3  Y      0.55596     0.59665
             43  O  3  Z      0.53250     0.62027
             44  O  3 XX      0.00431     0.20112
             45  O  3 YY      0.00236     0.20588
             46  O  3 ZZ      0.00293     0.20421
             47  O  3 XY      0.00683     0.00424
             48  O  3 XZ      0.00341     0.01148
             49  O  3 YZ      0.00000     0.00438

          ----- MULLIKEN ATOMIC OVERLAP POPULATIONS -----
          (OFF-DIAGONAL ELEMENTS NEED TO BE MULTIPLIED BY 2)

             1           2           3

    1   14.4811283
    2    0.3586458   8.2084913
    3    0.3586458  -0.1663471   8.2084913

          TOTAL MULLIKEN AND LOWDIN ATOMIC POPULATIONS
       ATOM         MULL.POP.    CHARGE          LOW.POP.     CHARGE
    1 S            15.198420    0.801580        15.200517    0.799483
    2 O             8.400790   -0.400790         8.399741   -0.399741
    3 O             8.400790   -0.400790         8.399741   -0.399741

          MULLIKEN SPHERICAL HARMONIC POPULATIONS
       ATOM           S       P       D      F      G      H      I    TOTAL
    1 S             5.82    9.02    0.37   0.00   0.00   0.00   0.00   15.20
    2 O             3.89    4.49    0.02   0.00   0.00   0.00   0.00    8.40
    3 O             3.89    4.49    0.02   0.00   0.00   0.00   0.00    8.40

          -------------------------------
          BOND ORDER AND VALENCE ANALYSIS     BOND ORDER THRESHOLD=0.050
          -------------------------------

                   BOND                       BOND                       BOND
  ATOM PAIR DIST  ORDER      ATOM PAIR DIST  ORDER      ATOM PAIR DIST  ORDER
    1   2  1.500  1.775        1   3  1.500  1.775        2   3  2.121  0.286

                       TOTAL       BONDED        FREE
      ATOM            VALENCE     VALENCE     VALENCE
    1 S                 3.549       3.549       0.000
    2 O                 2.061       2.061       0.000
    3 O                 2.061       2.061       0.000

          ---------------------
          ELECTROSTATIC MOMENTS
          ---------------------

 POINT   1           X           Y           Z (BOHR)    CHARGE
                 0.000000    0.000000    0.000000        0.00 (A.U.)
         DX          DY          DZ         /D/  (DEBYE)
     0.000000    0.000000   -3.104822    3.104822
 ...... END OF PROPERTY EVALUATION ......
 STEP CPU TIME =     0.01 TOTAL CPU TIME =        4.7 (    0.1 MIN)
 TOTAL WALL CLOCK TIME=        4.7 SECONDS, CPU UTILIZATION IS 100.00%
               580000  WORDS OF DYNAMIC MEMORY USED
 EXECUTION OF GAMESS TERMINATED NORMALLY Thu Feb 26 00:16:28 2015
 DDI: 263624 bytes (0.3 MB / 0 MWords) used by master data server.

 ----------------------------------------
 CPU timing information for all processes
 ========================================
 0: 4.672 + 0.25 = 4.698
 ----------------------------------------
 ddikick.x: exited gracefully.
----- accounting info -----
Files used on the master node dftfe.crc.nd.edu were:
-rw-r--r-- 1 pmehta1 campus   37475 Feb 26 00:16 /tmp/gamess.dat
-rw-r--r-- 1 pmehta1 campus     141 Feb 26 00:16 /tmp/gamess.F05
-rw-r--r-- 1 pmehta1 campus 2340312 Feb 26 00:16 /tmp/gamess.F08
-rw-r--r-- 1 pmehta1 campus 1220440 Feb 26 00:16 /tmp/gamess.F10
Thu Feb 26 00:16:31 EST 2015
0.241u 0.175s 0:08.12 5.0%	0+0k 0+112io 0pf+0w
