----- GAMESS execution script 'rungms' -----
This job is running on host dftfe.crc.nd.edu
under operating system Linux at Thu Feb 26 00:19:18 EST 2015
Available scratch disk space (Kbyte units) at beginning of the job is
Filesystem     1K-blocks     Used Available Use% Mounted on
/dev/sda2      147771864 22815568 117449864  17% /
GAMESS temporary binary files will be written to /tmp
GAMESS supplementary output files will be written to /tmp
Copying input file gamess.inp to your run's scratch directory...

 Distributed Data Interface kickoff program.
 Initiating 1 compute processes on 1 nodes to run the following command:
 /opt/crc/gamess/2012R1/gamess/gamess.00.x gamess 

          ******************************************************
          *         GAMESS VERSION =  1 MAY 2012 (R1)          *
          *             FROM IOWA STATE UNIVERSITY             *
          * M.W.SCHMIDT, K.K.BALDRIDGE, J.A.BOATZ, S.T.ELBERT, *
          *   M.S.GORDON, J.H.JENSEN, S.KOSEKI, N.MATSUNAGA,   *
          *          K.A.NGUYEN, S.J.SU, T.L.WINDUS,           *
          *       TOGETHER WITH M.DUPUIS, J.A.MONTGOMERY       *
          *         J.COMPUT.CHEM.  14, 1347-1363(1993)        *
          **************** 64 BIT LINUX VERSION ****************

  SINCE 1993, STUDENTS AND POSTDOCS WORKING AT IOWA STATE UNIVERSITY
  AND ALSO IN THEIR VARIOUS JOBS AFTER LEAVING ISU HAVE MADE IMPORTANT
  CONTRIBUTIONS TO THE CODE:
     IVANA ADAMOVIC, CHRISTINE AIKENS, YURI ALEXEEV, POOJA ARORA,
     ANDREY ASADCHEV, ROB BELL, PRADIPTA BANDYOPADHYAY, JONATHAN BENTZ,
     BRETT BODE, GALINA CHABAN, WEI CHEN, CHEOL HO CHOI, PAUL DAY,
     ALBERT DEFUSCO, TIM DUDLEY, DMITRI FEDOROV, GRAHAM FLETCHER,
     MARK FREITAG, KURT GLAESEMANN, DAN KEMP, GRANT MERRILL,
     NORIYUKI MINEZAWA, JONATHAN MULLIN, TAKESHI NAGATA,
     SEAN NEDD, HEATHER NETZLOFF, BOSILJKA NJEGIC, RYAN OLSON, MIKE PAK,
     JIM SHOEMAKER, LYUDMILA SLIPCHENKO, SAROM SOK, JIE SONG,
     TETSUYA TAKETSUGU, SIMON WEBB, SOOHAENG YOO, FEDERICO ZAHARIEV

  ADDITIONAL CODE HAS BEEN PROVIDED BY COLLABORATORS IN OTHER GROUPS:
     IOWA STATE UNIVERSITY:
          JOE IVANIC, LAIMUTIS BYTAUTAS, KLAUS RUEDENBERG
     UNIVERSITY OF TOKYO: KIMIHIKO HIRAO, TAKAHITO NAKAJIMA,
          TAKAO TSUNEDA, MUNEAKI KAMIYA, SUSUMU YANAGISAWA,
          KIYOSHI YAGI, MAHITO CHIBA, SEIKEN TOKURA, NAOAKI KAWAKAMI
     UNIVERSITY OF AARHUS: FRANK JENSEN
     UNIVERSITY OF IOWA: VISVALDAS KAIRYS, HUI LI
     NATIONAL INST. OF STANDARDS AND TECHNOLOGY: WALT STEVENS, DAVID GARMER
     UNIVERSITY OF PISA: BENEDETTA MENNUCCI, JACOPO TOMASI
     UNIVERSITY OF MEMPHIS: HENRY KURTZ, PRAKASHAN KORAMBATH
     UNIVERSITY OF ALBERTA: TOBY ZENG, MARIUSZ KLOBUKOWSKI
     UNIVERSITY OF NEW ENGLAND: MARK SPACKMAN
     MIE UNIVERSITY: HIROAKI UMEDA
     MICHIGAN STATE UNIVERSITY:
          KAROL KOWALSKI, MARTA WLOCH, JEFFREY GOUR, JESSE LUTZ, PIOTR PIECUCH
     UNIVERSITY OF SILESIA: MONIKA MUSIAL, STANISLAW KUCHARSKI
     FACULTES UNIVERSITAIRES NOTRE-DAME DE LA PAIX:
          OLIVIER QUINET, BENOIT CHAMPAGNE
     UNIVERSITY OF CALIFORNIA - SANTA BARBARA: BERNARD KIRTMAN
     INSTITUTE FOR MOLECULAR SCIENCE:
          KAZUYA ISHIMURA, MICHIO KATOUDA, AND SHIGERU NAGASE
     UNIVERSITY OF NOTRE DAME: DAN CHIPMAN
     KYUSHU UNIVERSITY:
          HARUYUKI NAKANO,
          FENG LONG GU, JACEK KORCHOWIEC, MARCIN MAKOWSKI, AND YURIKO AOKI,
          HIROTOSHI MORI AND EISAKU MIYOSHI
     PENNSYLVANIA STATE UNIVERSITY:
          TZVETELIN IORDANOV, CHET SWALINA, JONATHAN SKONE,
          SHARON HAMMES-SCHIFFER
     WASEDA UNIVERSITY:
          MASATO KOBAYASHI, TOMOKO AKAMA, TSUGUKI TOUMA,
          TAKESHI YOSHIKAWA, YASUHIRO IKABATA, HIROMI NAKAI
     UNIVERSITY OF NEBRASKA:
          PEIFENG SU, DEJUN SI, NANDUN THELLAMUREGE, YALI WANG, HUI LI
     UNIVERSITY OF ZURICH:
          ROBERTO PEVERATI, KIM BALDRIDGE
     N. COPERNICUS UNIVERSITY AND JACKSON STATE UNIVERSITY:
          MARIA BARYSZ

 EXECUTION OF GAMESS BEGUN Thu Feb 26 00:19:18 2015

            ECHO OF THE FIRST FEW INPUT CARDS -
 INPUT CARD> $BASIS GBASIS=PC1 $END                                                         
 INPUT CARD> $CONTRL COORD=ZMT ISPHER=1 RUNTYP=ENERGY DFTTYP=PBE $END                       
 INPUT CARD>                                                                                
 INPUT CARD> $DATA                                                                          
 INPUT CARD>Title                                                                           
 INPUT CARD>Cnv 2                                                                           
 INPUT CARD>                                                                                
 INPUT CARD>S                                                                               
 INPUT CARD>O 1 1.70                                                                        
 INPUT CARD>O 1 1.70 2 120.0                                                                
 INPUT CARD> $END                                                                           
    1000000 WORDS OF MEMORY AVAILABLE

     BASIS OPTIONS
     -------------
     GBASIS=PC1          IGAUSS=       0      POLAR=NONE    
     NDFUNC=       0     NFFUNC=       0     DIFFSP=       F
     NPFUNC=       0      DIFFS=       F     BASNAM=        


     RUN TITLE
     ---------
 Title                                                                           

 THE POINT GROUP OF THE MOLECULE IS CNV     
 THE ORDER OF THE PRINCIPAL AXIS IS     2

 YOUR FULLY SUBSTITUTED Z-MATRIX IS
 S   
 O      1   1.7000000
 O      1   1.7000000  2  120.0000

 THE MOMENTS OF INERTIA ARE (AMU-ANGSTROM**2)
 IXX=    11.553   IYY=    69.338   IZZ=    80.891

 ATOM      ATOMIC                      COORDINATES (BOHR)
           CHARGE         X                   Y                   Z
 S          16.0     0.0000000000        0.0000000000       -0.8033564216
 O           8.0    -2.7821362097        0.0000000000        0.8029106680
 O           8.0     2.7821362097        0.0000000000        0.8029106680

          INTERNUCLEAR DISTANCES (ANGS.)
          ------------------------------

                1 S          2 O          3 O     

   1 S       0.0000000    1.7000000 *  1.7000000 *
   2 O       1.7000000 *  0.0000000    2.9444864 *
   3 O       1.7000000 *  2.9444864 *  0.0000000  

  * ... LESS THAN  3.000


     ATOMIC BASIS SET
     ----------------
 THE CONTRACTED PRIMITIVE FUNCTIONS HAVE BEEN UNNORMALIZED
 THE CONTRACTED BASIS FUNCTIONS ARE NOW NORMALIZED TO UNITY

  SHELL TYPE  PRIMITIVE        EXPONENT          CONTRACTION COEFFICIENT(S)

 S         

      1   S       1         55510.0000000    0.000587229760
      1   S       2          8326.7000000    0.004532413947
      1   S       3          1895.6000000    0.023265261648
      1   S       4           536.7700000    0.089696133027
      1   S       5           174.6700000    0.254098332277
      1   S       6            62.5780000    0.438665087637
      1   S       7            23.5730000    0.314547135094
      1   S       8             5.8908000    0.032727897102

      2   S       9          8326.7000000   -0.000019755715
      2   S      10          1895.6000000   -0.000043822381
      2   S      11           536.7700000   -0.001730264906
      2   S      12           174.6700000   -0.009381263460
      2   S      13            62.5780000   -0.064050766303
      2   S      14            23.5730000   -0.082478179196
      2   S      15             5.8908000    0.478342956889
      2   S      16             2.1852000    0.626896670208

      3   S      17          1895.6000000    0.000016227260
      3   S      18           536.7700000    0.000191135619
      3   S      19           174.6700000    0.001952069674
      3   S      20            62.5780000    0.010578701087
      3   S      21            23.5730000    0.022164934551
      3   S      22             5.8908000   -0.184968323118
      3   S      23             2.1852000   -0.480920750976
      3   S      24             0.4528200    1.243822243872

      4   S      25             0.1620200    1.000000000000

      5   P      26           395.4500000    0.004642761329
      5   P      27            92.8340000    0.036023396489
      5   P      28            29.2660000    0.149058869978
      5   P      29            10.5950000    0.360033266263
      5   P      30             4.0272000    0.455756476221
      5   P      31             1.5484000    0.206167664178

      6   P      32            92.8340000    0.000169901442
      6   P      33            29.2660000   -0.002541839934
      6   P      34            10.5950000   -0.007867614595
      6   P      35             4.0272000   -0.037231009184
      6   P      36             1.5484000    0.161417246830
      6   P      37             0.4613400    0.902230419976

      7   P      38             0.1313100    1.000000000000

      8   D      39             0.5500000    1.000000000000

 O         

     15   S      40          2306.7000000    0.005424388755
     15   S      41           347.1500000    0.040474749465
     15   S      42            78.8900000    0.180219634554
     15   S      43            21.8760000    0.462370311787
     15   S      44             6.6646000    0.454888396263

     16   S      45           347.1500000   -0.000655003786
     16   S      46            78.8900000   -0.005362052952
     16   S      47            21.8760000   -0.074902158894
     16   S      48             6.6646000   -0.181442579655
     16   S      49             1.0669000    1.102006874042

     17   S      50             0.3070000    1.000000000000

     18   P      51            17.0220000    0.068979967443
     18   P      52             3.6838000    0.351985516325
     18   P      53             0.9923400    0.724036547822

     19   P      54             0.2448700    1.000000000000

     20   D      55             1.0000000    1.000000000000

 TOTAL NUMBER OF BASIS SET SHELLS             =   20
 NUMBER OF CARTESIAN GAUSSIAN BASIS FUNCTIONS =   49
 NOTE: THIS RUN WILL RESTRICT THE MO VARIATION SPACE TO SPHERICAL HARMONICS.
 THE NUMBER OF ORBITALS KEPT IN THE VARIATIONAL SPACE WILL BE PRINTED LATER.
 NUMBER OF ELECTRONS                          =   32
 CHARGE OF MOLECULE                           =    0
 SPIN MULTIPLICITY                            =    1
 NUMBER OF OCCUPIED ORBITALS (ALPHA)          =   16
 NUMBER OF OCCUPIED ORBITALS (BETA )          =   16
 TOTAL NUMBER OF ATOMS                        =    3
 THE NUCLEAR REPULSION ENERGY IS       91.1898211485

     LEBEDEV GRID-BASED DFT OPTIONS
     ------------------------------
     DFTTYP=PBE     
     NRAD  =      96     NLEB  =     302
     NRAD0 =      24     NLEB0 =     110
     SWOFF =    5.00E-03 (PURE SCF -> DFT)
     SWITCH=    3.00E-04 (COARSE -> TIGHT GRID)
     THRESH=    0.00E+00 GTHRE=    1.00E+00

 GRIMME'S EMPIRICAL DISPERSION CORRECTION= F

     $CONTRL OPTIONS
     ---------------
 SCFTYP=RHF          RUNTYP=ENERGY       EXETYP=RUN     
 MPLEVL=       0     CITYP =NONE         CCTYP =NONE         VBTYP =NONE    
 DFTTYP=PBE          TDDFT =NONE    
 MULT  =       1     ICHARG=       0     NZVAR =       0     COORD =ZMT     
 PP    =NONE         RELWFN=NONE         LOCAL =NONE         NUMGRD=       F
 ISPHER=       1     NOSYM =       0     MAXIT =      30     UNITS =ANGS    
 PLTORB=       F     MOLPLT=       F     AIMPAC=       F     FRIEND=        
 NPRINT=       7     IREST =       0     GEOM  =INPUT   
 NORMF =       0     NORMP =       0     ITOL  =      20     ICUT  =       9
 INTTYP=BEST         GRDTYP=BEST         QMTTOL= 1.0E-06

     $SYSTEM OPTIONS
     ---------------
  REPLICATED MEMORY=     1000000 WORDS (ON EVERY NODE).
 DISTRIBUTED MEMDDI=           0 MILLION WORDS IN AGGREGATE,
 MEMDDI DISTRIBUTED OVER   1 PROCESSORS IS           0 WORDS/PROCESSOR.
 TOTAL MEMORY REQUESTED ON EACH PROCESSOR=     1000000 WORDS.
 TIMLIM=      525600.00 MINUTES, OR     365.0 DAYS.
 PARALL= F  BALTYP=  DLB     KDIAG=    0  COREFL= F
 MXSEQ2=     300 MXSEQ3=     150

          ----------------
          PROPERTIES INPUT
          ----------------

     MOMENTS            FIELD           POTENTIAL          DENSITY
 IEMOM =       1   IEFLD =       0   IEPOT =       0   IEDEN =       0
 WHERE =COMASS     WHERE =NUCLEI     WHERE =NUCLEI     WHERE =NUCLEI  
 OUTPUT=BOTH       OUTPUT=BOTH       OUTPUT=BOTH       OUTPUT=BOTH    
 IEMINT=       0   IEFINT=       0                     IEDINT=       0
                                                       MORB  =       0
          EXTRAPOLATION IN EFFECT
          DIIS IN EFFECT
 ORBITAL PRINTING OPTION: NPREO=     1    49     2     1

     -------------------------------
     INTEGRAL TRANSFORMATION OPTIONS
     -------------------------------
     NWORD  =            0
     CUTOFF = 1.0E-09     MPTRAN =       0
     DIRTRF =       F     AOINTS =DUP     

          ----------------------
          INTEGRAL INPUT OPTIONS
          ----------------------
 NOPK  =       1 NORDER=       0 SCHWRZ=       F

   --- ENCODED Z MATRIX ---
 COORD  TYPE   I   J   K   L   M   N
    1      1    3   1
    2      1    2   1
    3      2    2   1   3

 THE DETERMINANT OF THE G MATRIX IS 10**(    -4)

 THE DETERMINANT OF THE G MATRIX IS 10**(    -4)
 * * * WARNING * * *
 YOUR B MATRIX HAS A SMALL DETERMINANT.
 THIS SUGGESTS YOU MAY HAVE BADLY CHOSEN COORDINATES.

     ------------------------------------------
     THE POINT GROUP IS CNV, NAXIS= 2, ORDER= 4
     ------------------------------------------

 -- VARIATIONAL SPACE WILL BE RESTRICTED TO PURE SPHERICAL HARMONICS ONLY --
 AFTER EXCLUDING CONTAMINANT COMBINATIONS FROM THE CARTESIAN GAUSSIAN BASIS
 SET, THE NUMBER OF SPHERICAL HARMONICS KEPT IN THE VARIATION SPACE IS   46

     DIMENSIONS OF THE SYMMETRY SUBSPACES ARE
 A1  =   19     A2  =    5     B1  =   14     B2  =    8

 ..... DONE SETTING UP THE RUN .....
 STEP CPU TIME =     0.01 TOTAL CPU TIME =        0.0 (    0.0 MIN)
 TOTAL WALL CLOCK TIME=        0.0 SECONDS, CPU UTILIZATION IS  50.00%

          ********************
          1 ELECTRON INTEGRALS
          ********************
 ...... END OF ONE-ELECTRON INTEGRALS ......
 STEP CPU TIME =     0.00 TOTAL CPU TIME =        0.0 (    0.0 MIN)
 TOTAL WALL CLOCK TIME=        0.0 SECONDS, CPU UTILIZATION IS  50.00%

          -------------
          GUESS OPTIONS
          -------------
          GUESS =HUCKEL            NORB  =       0          NORDER=       0
          MIX   =       F          PRTMO =       F          PUNMO =       F
          TOLZ  = 1.0E-08          TOLE  = 1.0E-05
          SYMDEN=       F          PURIFY=       F

 INITIAL GUESS ORBITALS GENERATED BY HUCKEL   ROUTINE.
 HUCKEL GUESS REQUIRES     21583 WORDS.

 STATISTICS FOR GENERATION OF SYMMETRY ORBITAL -Q- MATRIX
 NUMBER OF CARTESIAN ATOMIC ORBITALS=         49
 NUMBER OF SPHERICAL CONTAMINANTS DROPPED=     3
 NUMBER OF LINEARLY DEPENDENT MOS DROPPED=     0
 TOTAL NUMBER OF MOS IN VARIATION SPACE=      46

 SYMMETRIES FOR INITIAL GUESS ORBITALS FOLLOW.   BOTH SET(S).
    16 ORBITALS ARE OCCUPIED (    7 CORE ORBITALS).
     8=?A1      9=?B1     10=?A1     11=B2      12=B1      13=A1      14=A2  
    15=B1      16=?A1     17=B2      18=A1      19=B1      20=A1      21=A1  
    22=A1      23=A1      24=A1      25=A1      26=A1  
 ...... END OF INITIAL ORBITAL SELECTION ......
 STEP CPU TIME =     0.01 TOTAL CPU TIME =        0.0 (    0.0 MIN)
 TOTAL WALL CLOCK TIME=        0.0 SECONDS, CPU UTILIZATION IS  66.67%

                    ----------------------
                    AO INTEGRAL TECHNOLOGY
                    ----------------------
     S,P,L SHELL ROTATED AXIS INTEGRALS, REPROGRAMMED BY
        KAZUYA ISHIMURA (IMS) AND JOSE SIERRA (SYNSTAR).
     S,P,D,L SHELL ROTATED AXIS INTEGRALS PROGRAMMED BY
        KAZUYA ISHIMURA (INSTITUTE FOR MOLECULAR SCIENCE).
     S,P,D,F,G SHELL TO TOTAL QUARTET ANGULAR MOMENTUM SUM 5,
        ERIC PROGRAM BY GRAHAM FLETCHER (ELORET AND NASA ADVANCED
        SUPERCOMPUTING DIVISION, AMES RESEARCH CENTER).
     S,P,D,F,G,L SHELL GENERAL RYS QUADRATURE PROGRAMMED BY
        MICHEL DUPUIS (PACIFIC NORTHWEST NATIONAL LABORATORY).

          --------------------
          2 ELECTRON INTEGRALS
          --------------------

 THE -PK- OPTION IS OFF, THE INTEGRALS ARE NOT IN SUPERMATRIX FORM.
 STORING   15000 INTEGRALS/RECORD ON DISK, USING 12 BYTES/INTEGRAL.
 TWO ELECTRON INTEGRAL EVALUATION REQUIRES   90606 WORDS OF MEMORY.
 II,JST,KST,LST =  1  1  1  1 NREC =         1 INTLOC =    1
 II,JST,KST,LST =  2  1  1  1 NREC =         1 INTLOC =    2
 II,JST,KST,LST =  3  1  1  1 NREC =         1 INTLOC =    7
 II,JST,KST,LST =  4  1  1  1 NREC =         1 INTLOC =   22
 II,JST,KST,LST =  5  1  1  1 NREC =         1 INTLOC =   56
 II,JST,KST,LST =  6  1  1  1 NREC =         1 INTLOC =  125
 II,JST,KST,LST =  7  1  1  1 NREC =         1 INTLOC =  329
 II,JST,KST,LST =  8  1  1  1 NREC =         1 INTLOC =  776
 II,JST,KST,LST =  9  1  1  1 NREC =         1 INTLOC = 2864
 II,JST,KST,LST = 10  1  1  1 NREC =         1 INTLOC = 2864
 II,JST,KST,LST = 11  1  1  1 NREC =         1 INTLOC = 2864
 II,JST,KST,LST = 12  1  1  1 NREC =         1 INTLOC = 2864
 II,JST,KST,LST = 13  1  1  1 NREC =         1 INTLOC = 2864
 II,JST,KST,LST = 14  1  1  1 NREC =         1 INTLOC = 2864
 II,JST,KST,LST = 15  1  1  1 NREC =         1 INTLOC = 2864
 II,JST,KST,LST = 16  1  1  1 NREC =         1 INTLOC = 4978
 II,JST,KST,LST = 17  1  1  1 NREC =         1 INTLOC = 8097
 II,JST,KST,LST = 18  1  1  1 NREC =         1 INTLOC =12490
 II,JST,KST,LST = 19  1  1  1 NREC =         2 INTLOC =14378
 II,JST,KST,LST = 20  1  1  1 NREC =         5 INTLOC =  141
 TOTAL NUMBER OF NONZERO TWO-ELECTRON INTEGRALS =              169168
         12 INTEGRAL RECORDS WERE STORED ON DISK FILE  8.
  ...... END OF TWO-ELECTRON INTEGRALS .....
 STEP CPU TIME =     0.15 TOTAL CPU TIME =        0.2 (    0.0 MIN)
 TOTAL WALL CLOCK TIME=        0.2 SECONDS, CPU UTILIZATION IS  94.44%

          --------------------------
               R-PBE SCF CALCULATION
          --------------------------

     NUCLEAR ENERGY =        91.1898211485
     MAXIT =   30     NPUNCH=    2
     EXTRAP=T  DAMP=F  SHIFT=F  RSTRCT=F  DIIS=T  DEM=F  SOSCF=F
         DENSITY MATRIX CONVERGENCE THRESHOLD=  1.00E-05
     COARSE -> FINE DFT GRID SWITCH THRESHOLD=  3.00E-04 (SWITCH IN $DFT)
                   HF -> DFT SWITCH THRESHOLD=  5.00E-03 (SWOFF IN $DFT)
     MEMORY REQUIRED FOR RHF ITERS=    183108 WORDS.

 DFT CODE IS SWITCHING FROM THE FINE GRID NRAD= 96,  NLEB=  302
                      TO THE COARSE GRID NRAD0= 24, NLEB0=  110

     EXCHANGE FUNCTIONAL   =PBE       
     CORRELATION FUNCTIONAL=PBE       
     DFT THRESHOLD         =.460E-07
     GRID CHANGE THRESHOLD =.300E-03
 FOR AN EULER-MACLAURIN QUADRATURE USING  96 RADIAL POINTS:
 SMALLEST GAUSSIAN PRIMITIVE EXPONENT=        0.1313100000 OF TYPE -P-
 ON ATOM NUMBER   1 HAS RADIAL NORMALIZATION=  1.000000
  LARGEST GAUSSIAN PRIMITIVE EXPONENT=    55510.0000000000 OF TYPE -S-
 ON ATOM NUMBER   1 HAS RADIAL NORMALIZATION=  0.999999
 DFT IS SWITCHED OFF, PERFORMING PURE SCF UNTIL SWOFF THRESHOLD IS REACHED.

 ITER EX DEM     TOTAL ENERGY        E CHANGE  DENSITY CHANGE    DIIS ERROR
   1  0  0     -545.9682195481  -545.9682195481   0.491080326   1.202861620
          * * *   INITIATING DIIS PROCEDURE   * * *
   2  1  0     -546.4217752643    -0.4535557162   0.580651955   0.451456751
   3  2  0     -546.3642574856     0.0575177787   0.278284628   0.477557298
   4  3  0     -546.9860065041    -0.6217490185   0.026590303   0.015120254
   5  4  0     -546.9872400705    -0.0012335664   0.007359164   0.007180784
   6  5  0     -546.9874940205    -0.0002539501   0.003198087   0.003775491
 CONVERGED TO SWOFF, SO DFT CALCULATION IS NOW SWITCHED ON.
          * * *   INITIATING DIIS PROCEDURE   * * *
   7  6  0     -548.1555918139    -1.1680977933   0.362673420   0.111276740
   8  7  0     -548.1278703173     0.0277214966   0.321953512   0.162999113
   9  8  0     -548.1394891102    -0.0116187930   0.100768118   0.179514837
  10  9  0     -548.2035258635    -0.0640367532   0.017966781   0.012703302
  11 10  0     -548.2042747231    -0.0007488596   0.001330854   0.001891924
  12 11  0     -548.2042827402    -0.0000080172   0.000575422   0.000548071
  13 12  0     -548.2042835108    -0.0000007705   0.000049377   0.000036380
 DFT CODE IS SWITCHING BACK TO THE FINE GRID
          * * *   INITIATING DIIS PROCEDURE   * * *
  14 13  0     -548.2095851931    -0.0053016823   0.016641816   0.009503673
  15 14  0     -548.2097062055    -0.0001210125   0.020214776   0.009505555
  16 15  0     -548.2093429971     0.0003632085   0.013147894   0.016298024
  17 16  0     -548.2099083661    -0.0005653690   0.000507729   0.000468394
  18 17  0     -548.2099088377    -0.0000004716   0.000083603   0.000104420
  19 18  0     -548.2099088789    -0.0000000411   0.000038474   0.000019008
  20 19  0     -548.2099088798    -0.0000000010   0.000008127   0.000006895
  21 20  0     -548.2099088800    -0.0000000001   0.000000509   0.000000529

          -----------------
          DENSITY CONVERGED
          -----------------
     TIME TO FORM FOCK OPERATORS=       4.2 SECONDS (       0.2 SEC/ITER)
     TIME TO SOLVE SCF EQUATIONS=       0.0 SECONDS (       0.0 SEC/ITER)

 FINAL R-PBE ENERGY IS     -548.2099088800 AFTER  21 ITERATIONS
 DFT EXCHANGE + CORRELATION ENERGY =       -42.2591137708
 TOTAL ELECTRON NUMBER             =        32.0000030303

          ------------
          EIGENVECTORS
          ------------

                      1          2          3          4          5
                  -88.2248   -18.8250   -18.8250    -7.8454    -5.8667
                     A1         A1         B1         A1         B1  
    1  S  1  S    1.002978  -0.000068   0.000000  -0.274112   0.000000
    2  S  1  S   -0.010279  -0.001069   0.000000   1.039498   0.000000
    3  S  1  S    0.001780  -0.001957   0.000000   0.040496   0.000000
    4  S  1  S   -0.000917   0.008586   0.000000  -0.012115   0.000000
    5  S  1  X    0.000000   0.000000   0.000113   0.000000   0.996843
    6  S  1  Y    0.000000   0.000000   0.000000   0.000000   0.000000
    7  S  1  Z    0.000059  -0.000100   0.000000   0.009280   0.000000
    8  S  1  X    0.000000   0.000000  -0.001057   0.000000   0.009001
    9  S  1  Y    0.000000   0.000000   0.000000   0.000000   0.000000
   10  S  1  Z    0.000026   0.000748   0.000000   0.000836   0.000000
   11  S  1  X    0.000000   0.000000  -0.004857   0.000000  -0.000179
   12  S  1  Y    0.000000   0.000000   0.000000   0.000000   0.000000
   13  S  1  Z   -0.000054   0.003520   0.000000  -0.000621   0.000000
   14  S  1 XX    0.000022   0.001188   0.000000   0.000499   0.000000
   15  S  1 YY   -0.000012  -0.001135   0.000000  -0.000263   0.000000
   16  S  1 ZZ   -0.000009  -0.000052   0.000000  -0.000236   0.000000
   17  S  1 XY    0.000000   0.000000   0.000000   0.000000   0.000000
   18  S  1 XZ    0.000000   0.000000  -0.001224   0.000000   0.000565
   19  S  1 YZ    0.000000   0.000000   0.000000   0.000000   0.000000
   20  O  2  S    0.000003   0.703276   0.703252   0.000034   0.000094
   21  O  2  S    0.000007   0.025515   0.025221   0.000009   0.000051
   22  O  2  S    0.000062  -0.011725  -0.011077   0.000562  -0.000092
   23  O  2  X   -0.000001   0.000880   0.000707  -0.000173  -0.000076
   24  O  2  Y    0.000000   0.000000   0.000000   0.000000   0.000000
   25  O  2  Z   -0.000004  -0.000337  -0.000537   0.000053   0.000039
   26  O  2  X   -0.000032  -0.003257  -0.001971  -0.000441  -0.000070
   27  O  2  Y    0.000000   0.000000   0.000000   0.000000   0.000000
   28  O  2  Z    0.000040   0.001035   0.001828   0.000480   0.000074
   29  O  2 XX   -0.000051  -0.000382  -0.000170  -0.000491  -0.000153
   30  O  2 YY    0.000044   0.000260   0.000200   0.000419   0.000143
   31  O  2 ZZ    0.000008   0.000123  -0.000030   0.000072   0.000010
   32  O  2 XY    0.000000   0.000000   0.000000   0.000000   0.000000
   33  O  2 XZ    0.000068   0.000301   0.000313   0.000647   0.000227
   34  O  2 YZ    0.000000   0.000000   0.000000   0.000000   0.000000
   35  O  3  S    0.000003   0.703276  -0.703252   0.000034  -0.000094
   36  O  3  S    0.000007   0.025515  -0.025221   0.000009  -0.000051
   37  O  3  S    0.000062  -0.011725   0.011077   0.000562   0.000092
   38  O  3  X    0.000001  -0.000880   0.000707   0.000173  -0.000076
   39  O  3  Y    0.000000   0.000000   0.000000   0.000000   0.000000
   40  O  3  Z   -0.000004  -0.000337   0.000537   0.000053  -0.000039
   41  O  3  X    0.000032   0.003257  -0.001971   0.000441  -0.000070
   42  O  3  Y    0.000000   0.000000   0.000000   0.000000   0.000000
   43  O  3  Z    0.000040   0.001035  -0.001828   0.000480  -0.000074
   44  O  3 XX   -0.000051  -0.000382   0.000170  -0.000491   0.000153
   45  O  3 YY    0.000044   0.000260  -0.000200   0.000419  -0.000143
   46  O  3 ZZ    0.000008   0.000123   0.000030   0.000072  -0.000010
   47  O  3 XY    0.000000   0.000000   0.000000   0.000000   0.000000
   48  O  3 XZ   -0.000068  -0.000301   0.000313  -0.000647   0.000227
   49  O  3 YZ    0.000000   0.000000   0.000000   0.000000   0.000000

                      6          7          8          9         10
                   -5.8648    -5.8617    -0.9560    -0.9022    -0.6391
                     B2         A1         A1         B1         A1  
    1  S  1  S    0.000000   0.002546   0.044957   0.000000   0.072612
    2  S  1  S    0.000000  -0.009822  -0.129412   0.000000  -0.204973
    3  S  1  S    0.000000  -0.000271   0.267134   0.000000   0.457504
    4  S  1  S    0.000000  -0.000313   0.170787   0.000000   0.427826
    5  S  1  X    0.000000   0.000000   0.000000   0.087939   0.000000
    6  S  1  Y    0.996918   0.000000   0.000000   0.000000   0.000000
    7  S  1  Z    0.000000   0.996922  -0.043523   0.000000   0.024847
    8  S  1  X    0.000000   0.000000   0.000000  -0.176528   0.000000
    9  S  1  Y    0.008857   0.000000   0.000000   0.000000   0.000000
   10  S  1  Z    0.000000   0.008654   0.087695   0.000000  -0.047783
   11  S  1  X    0.000000   0.000000   0.000000  -0.029577   0.000000
   12  S  1  Y   -0.000164   0.000000   0.000000   0.000000   0.000000
   13  S  1  Z    0.000000  -0.000221   0.006768   0.000000  -0.043696
   14  S  1 XX    0.000000  -0.000358   0.031667   0.000000  -0.011243
   15  S  1 YY    0.000000  -0.000208  -0.024844   0.000000   0.012757
   16  S  1 ZZ    0.000000   0.000567  -0.006823   0.000000  -0.001514
   17  S  1 XY    0.000000   0.000000   0.000000   0.000000   0.000000
   18  S  1 XZ    0.000000   0.000000   0.000000  -0.048016   0.000000
   19  S  1 YZ    0.000461   0.000000   0.000000   0.000000   0.000000
   20  O  2  S    0.000000  -0.000067  -0.128408  -0.151104   0.098229
   21  O  2  S    0.000000  -0.000126   0.255658   0.306365  -0.204701
   22  O  2  S    0.000000   0.000327   0.314550   0.381714  -0.308777
   23  O  2  X    0.000000   0.000066   0.078936   0.067143   0.094277
   24  O  2  Y    0.000008   0.000000   0.000000   0.000000   0.000000
   25  O  2  Z    0.000000  -0.000026  -0.043037  -0.041965  -0.059210
   26  O  2  X    0.000000   0.000183   0.039605   0.032292   0.044200
   27  O  2  Y   -0.000054   0.000000   0.000000   0.000000   0.000000
   28  O  2  Z    0.000000  -0.000184  -0.020703  -0.021966  -0.023503
   29  O  2 XX    0.000000   0.000141   0.008680   0.004793   0.004457
   30  O  2 YY    0.000000  -0.000120  -0.004896  -0.002484  -0.005045
   31  O  2 ZZ    0.000000  -0.000021  -0.003784  -0.002308   0.000588
   32  O  2 XY   -0.000003   0.000000   0.000000   0.000000   0.000000
   33  O  2 XZ    0.000000  -0.000198  -0.009453  -0.007656  -0.005776
   34  O  2 YZ   -0.000004   0.000000   0.000000   0.000000   0.000000
   35  O  3  S    0.000000  -0.000067  -0.128408   0.151104   0.098229
   36  O  3  S    0.000000  -0.000126   0.255658  -0.306365  -0.204701
   37  O  3  S    0.000000   0.000327   0.314550  -0.381714  -0.308777
   38  O  3  X    0.000000  -0.000066  -0.078936   0.067143  -0.094277
   39  O  3  Y    0.000008   0.000000   0.000000   0.000000   0.000000
   40  O  3  Z    0.000000  -0.000026  -0.043037   0.041965  -0.059210
   41  O  3  X    0.000000  -0.000183  -0.039605   0.032292  -0.044200
   42  O  3  Y   -0.000054   0.000000   0.000000   0.000000   0.000000
   43  O  3  Z    0.000000  -0.000184  -0.020703   0.021966  -0.023503
   44  O  3 XX    0.000000   0.000141   0.008680  -0.004793   0.004457
   45  O  3 YY    0.000000  -0.000120  -0.004896   0.002484  -0.005045
   46  O  3 ZZ    0.000000  -0.000021  -0.003784   0.002308   0.000588
   47  O  3 XY    0.000003   0.000000   0.000000   0.000000   0.000000
   48  O  3 XZ    0.000000   0.000198   0.009453  -0.007656   0.005776
   49  O  3 YZ   -0.000004   0.000000   0.000000   0.000000   0.000000

                     11         12         13         14         15
                   -0.4327    -0.4031    -0.3987    -0.3117    -0.2944
                     B1         A1         B2         A2         B1  
    1  S  1  S    0.000000  -0.010245   0.000000   0.000000   0.000000
    2  S  1  S    0.000000   0.048434   0.000000   0.000000   0.000000
    3  S  1  S    0.000000  -0.039452   0.000000   0.000000   0.000000
    4  S  1  S    0.000000  -0.216708   0.000000   0.000000   0.000000
    5  S  1  X   -0.181318   0.000000   0.000000   0.000000  -0.017631
    6  S  1  Y    0.000000   0.000000  -0.210302   0.000000   0.000000
    7  S  1  Z    0.000000  -0.209059   0.000000   0.000000   0.000000
    8  S  1  X    0.429500   0.000000   0.000000   0.000000   0.035838
    9  S  1  Y    0.000000   0.000000   0.495347   0.000000   0.000000
   10  S  1  Z    0.000000   0.491538   0.000000   0.000000   0.000000
   11  S  1  X    0.120850   0.000000   0.000000   0.000000   0.124916
   12  S  1  Y    0.000000   0.000000   0.311911   0.000000   0.000000
   13  S  1  Z    0.000000   0.255829   0.000000   0.000000   0.000000
   14  S  1 XX    0.000000  -0.012160   0.000000   0.000000   0.000000
   15  S  1 YY    0.000000  -0.021245   0.000000   0.000000   0.000000
   16  S  1 ZZ    0.000000   0.033405   0.000000   0.000000   0.000000
   17  S  1 XY    0.000000   0.000000   0.000000  -0.088832   0.000000
   18  S  1 XZ    0.040126   0.000000   0.000000   0.000000  -0.079402
   19  S  1 YZ    0.000000   0.000000   0.034090   0.000000   0.000000
   20  O  2  S   -0.057561   0.025424   0.000000   0.000000  -0.001999
   21  O  2  S    0.117893  -0.052087   0.000000   0.000000   0.000772
   22  O  2  S    0.210989  -0.096785   0.000000   0.000000   0.042092
   23  O  2  X   -0.281076   0.288840   0.000000   0.000000   0.328450
   24  O  2  Y    0.000000   0.000000   0.287802   0.471386   0.000000
   25  O  2  Z    0.221942   0.078819   0.000000   0.000000   0.341391
   26  O  2  X   -0.165267   0.186589   0.000000   0.000000   0.232684
   27  O  2  Y    0.000000   0.000000   0.177221   0.335695   0.000000
   28  O  2  Z    0.136685   0.049122   0.000000   0.000000   0.231714
   29  O  2 XX   -0.004762   0.016321   0.000000   0.000000   0.012119
   30  O  2 YY    0.007602  -0.005309   0.000000   0.000000  -0.000216
   31  O  2 ZZ   -0.002840  -0.011012   0.000000   0.000000  -0.011903
   32  O  2 XY    0.000000   0.000000   0.014870   0.013490   0.000000
   33  O  2 XZ    0.012723   0.000099   0.000000   0.000000   0.005361
   34  O  2 YZ    0.000000   0.000000  -0.008355  -0.008666   0.000000
   35  O  3  S    0.057561   0.025424   0.000000   0.000000   0.001999
   36  O  3  S   -0.117893  -0.052087   0.000000   0.000000  -0.000772
   37  O  3  S   -0.210989  -0.096785   0.000000   0.000000  -0.042092
   38  O  3  X   -0.281076  -0.288840   0.000000   0.000000   0.328450
   39  O  3  Y    0.000000   0.000000   0.287802  -0.471386   0.000000
   40  O  3  Z   -0.221942   0.078819   0.000000   0.000000  -0.341391
   41  O  3  X   -0.165267  -0.186589   0.000000   0.000000   0.232684
   42  O  3  Y    0.000000   0.000000   0.177221  -0.335695   0.000000
   43  O  3  Z   -0.136685   0.049122   0.000000   0.000000  -0.231714
   44  O  3 XX    0.004762   0.016321   0.000000   0.000000  -0.012119
   45  O  3 YY   -0.007602  -0.005309   0.000000   0.000000   0.000216
   46  O  3 ZZ    0.002840  -0.011012   0.000000   0.000000   0.011903
   47  O  3 XY    0.000000   0.000000  -0.014870   0.013490   0.000000
   48  O  3 XZ    0.012723  -0.000099   0.000000   0.000000   0.005361
   49  O  3 YZ    0.000000   0.000000  -0.008355   0.008666   0.000000

                     16         17         18         19         20
                   -0.2880    -0.2186    -0.1047    -0.0480     0.3415
                     A1         B2         A1         B1         B1  
    1  S  1  S    0.016127   0.000000   0.028201   0.000000   0.000000
    2  S  1  S   -0.071262   0.000000  -0.088429   0.000000   0.000000
    3  S  1  S    0.071837   0.000000   0.180266   0.000000   0.000000
    4  S  1  S    0.339548   0.000000   0.476131   0.000000   0.000000
    5  S  1  X    0.000000   0.000000   0.000000  -0.211690   0.283933
    6  S  1  Y    0.000000  -0.201491   0.000000   0.000000   0.000000
    7  S  1  Z    0.066265   0.000000  -0.187542   0.000000   0.000000
    8  S  1  X    0.000000   0.000000   0.000000   0.541851  -1.080405
    9  S  1  Y    0.000000   0.503982   0.000000   0.000000   0.000000
   10  S  1  Z   -0.162361   0.000000   0.482864   0.000000   0.000000
   11  S  1  X    0.000000   0.000000   0.000000   0.840026   1.515657
   12  S  1  Y    0.000000   0.384441   0.000000   0.000000   0.000000
   13  S  1  Z   -0.035463   0.000000   0.560005   0.000000   0.000000
   14  S  1 XX   -0.113750   0.000000  -0.099812   0.000000   0.000000
   15  S  1 YY    0.043031   0.000000   0.115321   0.000000   0.000000
   16  S  1 ZZ    0.070720   0.000000  -0.015509   0.000000   0.000000
   17  S  1 XY    0.000000   0.000000   0.000000   0.000000   0.000000
   18  S  1 XZ    0.000000   0.000000   0.000000  -0.169238  -0.029514
   19  S  1 YZ    0.000000  -0.043317   0.000000   0.000000   0.000000
   20  O  2  S   -0.002059   0.000000   0.035304  -0.044370  -0.012960
   21  O  2  S    0.006785   0.000000  -0.068548   0.076368  -0.034561
   22  O  2  S   -0.024214   0.000000  -0.258373   0.391380   0.490311
   23  O  2  X   -0.042260   0.000000  -0.397910   0.167921  -0.241322
   24  O  2  Y    0.000000  -0.396958   0.000000   0.000000   0.000000
   25  O  2  Z    0.457165   0.000000  -0.009288  -0.291845   0.051359
   26  O  2  X   -0.034824   0.000000  -0.359242   0.198302   0.109811
   27  O  2  Y    0.000000  -0.305441   0.000000   0.000000   0.000000
   28  O  2  Z    0.333060   0.000000  -0.001301  -0.272096  -0.137194
   29  O  2 XX    0.003788   0.000000   0.002523   0.004617   0.026571
   30  O  2 YY    0.003812   0.000000   0.001984   0.001317  -0.022742
   31  O  2 ZZ   -0.007601   0.000000  -0.004507  -0.005933  -0.003829
   32  O  2 XY    0.000000  -0.001851   0.000000   0.000000   0.000000
   33  O  2 XZ    0.010994   0.000000   0.003727   0.002707  -0.036165
   34  O  2 YZ    0.000000   0.000617   0.000000   0.000000   0.000000
   35  O  3  S   -0.002059   0.000000   0.035304   0.044370   0.012960
   36  O  3  S    0.006785   0.000000  -0.068548  -0.076368   0.034561
   37  O  3  S   -0.024214   0.000000  -0.258373  -0.391380  -0.490311
   38  O  3  X    0.042260   0.000000   0.397910   0.167921  -0.241322
   39  O  3  Y    0.000000  -0.396958   0.000000   0.000000   0.000000
   40  O  3  Z    0.457165   0.000000  -0.009288   0.291845  -0.051359
   41  O  3  X    0.034824   0.000000   0.359242   0.198302   0.109811
   42  O  3  Y    0.000000  -0.305441   0.000000   0.000000   0.000000
   43  O  3  Z    0.333060   0.000000  -0.001301   0.272096   0.137194
   44  O  3 XX    0.003788   0.000000   0.002523  -0.004617  -0.026571
   45  O  3 YY    0.003812   0.000000   0.001984  -0.001317   0.022742
   46  O  3 ZZ   -0.007601   0.000000  -0.004507   0.005933   0.003829
   47  O  3 XY    0.000000   0.001851   0.000000   0.000000   0.000000
   48  O  3 XZ   -0.010994   0.000000  -0.003727   0.002707  -0.036165
   49  O  3 YZ    0.000000   0.000617   0.000000   0.000000   0.000000

                     21         22         23         24         25
                    0.3552     0.3613     0.3929     0.4791     0.4947
                     A1         B2         A1         A2         B2  
    1  S  1  S   -0.001227   0.000000  -0.109943   0.000000   0.000000
    2  S  1  S   -0.054571   0.000000  -0.397170   0.000000   0.000000
    3  S  1  S   -0.080641   0.000000  -1.697601   0.000000   0.000000
    4  S  1  S    0.368382   0.000000   2.076992   0.000000   0.000000
    5  S  1  X    0.000000   0.000000   0.000000   0.000000   0.000000
    6  S  1  Y    0.000000   0.289986   0.000000   0.000000   0.056746
    7  S  1  Z    0.279152   0.000000  -0.025702   0.000000   0.000000
    8  S  1  X    0.000000   0.000000   0.000000   0.000000   0.000000
    9  S  1  Y    0.000000  -1.123959   0.000000   0.000000  -0.218632
   10  S  1  Z   -1.077472   0.000000   0.092919   0.000000   0.000000
   11  S  1  X    0.000000   0.000000   0.000000   0.000000   0.000000
   12  S  1  Y    0.000000   1.234334   0.000000   0.000000   0.177796
   13  S  1  Z    1.357811   0.000000   0.117194   0.000000   0.000000
   14  S  1 XX    0.098142   0.000000  -0.274113   0.000000   0.000000
   15  S  1 YY    0.129805   0.000000   0.247962   0.000000   0.000000
   16  S  1 ZZ   -0.227948   0.000000   0.026151   0.000000   0.000000
   17  S  1 XY    0.000000   0.000000   0.000000   0.871352   0.000000
   18  S  1 XZ    0.000000   0.000000   0.000000   0.000000   0.000000
   19  S  1 YZ    0.000000  -0.195619   0.000000   0.000000   0.920491
   20  O  2  S    0.012684   0.000000   0.015722   0.000000   0.000000
   21  O  2  S    0.006921   0.000000  -0.038091   0.000000   0.000000
   22  O  2  S   -0.313845   0.000000  -0.263743   0.000000   0.000000
   23  O  2  X    0.093778   0.000000   0.055538   0.000000   0.000000
   24  O  2  Y    0.000000  -0.063007   0.000000   0.324623  -0.233971
   25  O  2  Z   -0.091431   0.000000  -0.127998   0.000000   0.000000
   26  O  2  X   -0.191498   0.000000  -0.150214   0.000000   0.000000
   27  O  2  Y    0.000000  -0.108435   0.000000  -0.160662   0.114161
   28  O  2  Z   -0.029383   0.000000   0.101639   0.000000   0.000000
   29  O  2 XX   -0.032037   0.000000  -0.022267   0.000000   0.000000
   30  O  2 YY    0.017078   0.000000   0.028607   0.000000   0.000000
   31  O  2 ZZ    0.014959   0.000000  -0.006340   0.000000   0.000000
   32  O  2 XY    0.000000  -0.017708   0.000000  -0.044055   0.035890
   33  O  2 XZ    0.009441   0.000000   0.042762   0.000000   0.000000
   34  O  2 YZ    0.000000   0.006514   0.000000   0.036001  -0.001089
   35  O  3  S    0.012684   0.000000   0.015722   0.000000   0.000000
   36  O  3  S    0.006921   0.000000  -0.038091   0.000000   0.000000
   37  O  3  S   -0.313845   0.000000  -0.263743   0.000000   0.000000
   38  O  3  X   -0.093778   0.000000  -0.055538   0.000000   0.000000
   39  O  3  Y    0.000000  -0.063007   0.000000  -0.324623  -0.233971
   40  O  3  Z   -0.091431   0.000000  -0.127998   0.000000   0.000000
   41  O  3  X    0.191498   0.000000   0.150214   0.000000   0.000000
   42  O  3  Y    0.000000  -0.108435   0.000000   0.160662   0.114161
   43  O  3  Z   -0.029383   0.000000   0.101639   0.000000   0.000000
   44  O  3 XX   -0.032037   0.000000  -0.022267   0.000000   0.000000
   45  O  3 YY    0.017078   0.000000   0.028607   0.000000   0.000000
   46  O  3 ZZ    0.014959   0.000000  -0.006340   0.000000   0.000000
   47  O  3 XY    0.000000   0.017708   0.000000  -0.044055  -0.035890
   48  O  3 XZ   -0.009441   0.000000  -0.042762   0.000000   0.000000
   49  O  3 YZ    0.000000   0.006514   0.000000  -0.036001  -0.001089

                     26         27         28         29         30
                    0.4948     0.6604     0.6651     0.7975     0.8207
                     A1         A1         B1         A2         A1  
    1  S  1  S    0.003642  -0.030073   0.000000   0.000000  -0.031075
    2  S  1  S    0.009739  -0.211317   0.000000   0.000000  -0.123387
    3  S  1  S    0.051937  -0.590534   0.000000   0.000000  -0.510496
    4  S  1  S   -0.054742   1.449890   0.000000   0.000000   0.169132
    5  S  1  X    0.000000   0.000000  -0.051150   0.000000   0.000000
    6  S  1  Y    0.000000   0.000000   0.000000   0.000000   0.000000
    7  S  1  Z    0.068196  -0.042207   0.000000   0.000000   0.015976
    8  S  1  X    0.000000   0.000000   0.221696   0.000000   0.000000
    9  S  1  Y    0.000000   0.000000   0.000000   0.000000   0.000000
   10  S  1  Z   -0.262964   0.169015   0.000000   0.000000  -0.134951
   11  S  1  X    0.000000   0.000000   0.651143   0.000000   0.000000
   12  S  1  Y    0.000000   0.000000   0.000000   0.000000   0.000000
   13  S  1  Z    0.217164   0.414201   0.000000   0.000000  -0.131544
   14  S  1 XX   -0.310155   0.765754   0.000000   0.000000   0.523902
   15  S  1 YY   -0.549200  -0.755234   0.000000   0.000000  -0.241429
   16  S  1 ZZ    0.859355  -0.010519   0.000000   0.000000  -0.282473
   17  S  1 XY    0.000000   0.000000   0.000000   0.505662   0.000000
   18  S  1 XZ    0.000000   0.000000   0.904050   0.000000   0.000000
   19  S  1 YZ    0.000000   0.000000   0.000000   0.000000   0.000000
   20  O  2  S   -0.001014   0.061184  -0.059620   0.000000   0.000168
   21  O  2  S    0.003179  -0.282109   0.261365   0.000000   0.034614
   22  O  2  S   -0.020266  -0.262442   0.247979   0.000000  -0.056450
   23  O  2  X   -0.131594   0.181736  -0.045245   0.000000  -0.573026
   24  O  2  Y    0.000000   0.000000   0.000000  -0.564445   0.000000
   25  O  2  Z   -0.269563   0.056805   0.190420   0.000000   0.031739
   26  O  2  X    0.081566  -0.677953   0.517966   0.000000   0.689165
   27  O  2  Y    0.000000   0.000000   0.000000   0.751034   0.000000
   28  O  2  Z    0.119994   0.212347  -0.460706   0.000000   0.066499
   29  O  2 XX    0.030217  -0.010705  -0.041608   0.000000  -0.052425
   30  O  2 YY   -0.009134  -0.014185   0.009491   0.000000   0.005645
   31  O  2 ZZ   -0.021082   0.024890   0.032117   0.000000   0.046780
   32  O  2 XY    0.000000   0.000000   0.000000  -0.043445   0.000000
   33  O  2 XZ    0.031179  -0.012665   0.010771   0.000000  -0.006335
   34  O  2 YZ    0.000000   0.000000   0.000000   0.031273   0.000000
   35  O  3  S   -0.001014   0.061184   0.059620   0.000000   0.000168
   36  O  3  S    0.003179  -0.282109  -0.261365   0.000000   0.034614
   37  O  3  S   -0.020266  -0.262442  -0.247979   0.000000  -0.056450
   38  O  3  X    0.131594  -0.181736  -0.045245   0.000000   0.573026
   39  O  3  Y    0.000000   0.000000   0.000000   0.564445   0.000000
   40  O  3  Z   -0.269563   0.056805  -0.190420   0.000000   0.031739
   41  O  3  X   -0.081566   0.677953   0.517966   0.000000  -0.689165
   42  O  3  Y    0.000000   0.000000   0.000000  -0.751034   0.000000
   43  O  3  Z    0.119994   0.212347   0.460706   0.000000   0.066499
   44  O  3 XX    0.030217  -0.010705   0.041608   0.000000  -0.052425
   45  O  3 YY   -0.009134  -0.014185  -0.009491   0.000000   0.005645
   46  O  3 ZZ   -0.021082   0.024890  -0.032117   0.000000   0.046780
   47  O  3 XY    0.000000   0.000000   0.000000  -0.043445   0.000000
   48  O  3 XZ   -0.031179   0.012665   0.010771   0.000000   0.006335
   49  O  3 YZ    0.000000   0.000000   0.000000  -0.031273   0.000000

                     31         32         33         34         35
                    0.8226     0.8257     0.8336     0.8637     1.5568
                     B1         A1         B2         B1         B1  
    1  S  1  S    0.000000   0.021236   0.000000   0.000000   0.000000
    2  S  1  S    0.000000   0.085301   0.000000   0.000000   0.000000
    3  S  1  S    0.000000   0.351075   0.000000   0.000000   0.000000
    4  S  1  S    0.000000  -0.081445   0.000000   0.000000   0.000000
    5  S  1  X   -0.013537   0.000000   0.000000  -0.072581  -0.026133
    6  S  1  Y    0.000000   0.000000  -0.027857   0.000000   0.000000
    7  S  1  Z    0.000000  -0.046953   0.000000   0.000000   0.000000
    8  S  1  X    0.070467   0.000000   0.000000   0.473133   0.144607
    9  S  1  Y    0.000000   0.000000   0.143256   0.000000   0.000000
   10  S  1  Z    0.000000   0.270401   0.000000   0.000000   0.000000
   11  S  1  X   -0.277989   0.000000   0.000000  -0.392085   1.094845
   12  S  1  Y    0.000000   0.000000  -0.588556   0.000000   0.000000
   13  S  1  Z    0.000000  -0.503779   0.000000   0.000000   0.000000
   14  S  1 XX    0.000000   0.205386   0.000000   0.000000   0.000000
   15  S  1 YY    0.000000   0.174940   0.000000   0.000000   0.000000
   16  S  1 ZZ    0.000000  -0.380326   0.000000   0.000000   0.000000
   17  S  1 XY    0.000000   0.000000   0.000000   0.000000   0.000000
   18  S  1 XZ    0.309117   0.000000   0.000000  -0.436594   0.376837
   19  S  1 YZ    0.000000   0.000000  -0.349474   0.000000   0.000000
   20  O  2  S   -0.000933   0.001513   0.000000   0.004799   0.010136
   21  O  2  S   -0.025759   0.010684   0.000000   0.023729  -1.166283
   22  O  2  S   -0.019335   0.052556   0.000000  -0.167823   1.704800
   23  O  2  X   -0.264062   0.031280   0.000000  -0.565012  -0.028157
   24  O  2  Y    0.000000   0.000000  -0.596818   0.000000   0.000000
   25  O  2  Z   -0.555757  -0.575346   0.000000   0.224680   0.090503
   26  O  2  X    0.409054  -0.030620   0.000000   0.634033   0.371621
   27  O  2  Y    0.000000   0.000000   0.862058   0.000000   0.000000
   28  O  2  Z    0.682590   0.826777   0.000000  -0.247569  -0.413108
   29  O  2 XX   -0.035337  -0.005796   0.000000  -0.001866  -0.100105
   30  O  2 YY    0.010358  -0.016553   0.000000   0.023475   0.092939
   31  O  2 ZZ    0.024979   0.022349   0.000000  -0.021609   0.007166
   32  O  2 XY    0.000000   0.000000  -0.039750   0.000000   0.000000
   33  O  2 XZ   -0.000421  -0.055436   0.000000   0.030934   0.158460
   34  O  2 YZ    0.000000   0.000000   0.013927   0.000000   0.000000
   35  O  3  S    0.000933   0.001513   0.000000  -0.004799  -0.010136
   36  O  3  S    0.025759   0.010684   0.000000  -0.023729   1.166283
   37  O  3  S    0.019335   0.052556   0.000000   0.167823  -1.704800
   38  O  3  X   -0.264062  -0.031280   0.000000  -0.565012  -0.028157
   39  O  3  Y    0.000000   0.000000  -0.596818   0.000000   0.000000
   40  O  3  Z    0.555757  -0.575346   0.000000  -0.224680  -0.090503
   41  O  3  X    0.409054   0.030620   0.000000   0.634033   0.371621
   42  O  3  Y    0.000000   0.000000   0.862058   0.000000   0.000000
   43  O  3  Z   -0.682590   0.826777   0.000000   0.247569   0.413108
   44  O  3 XX    0.035337  -0.005796   0.000000   0.001866   0.100105
   45  O  3 YY   -0.010358  -0.016553   0.000000  -0.023475  -0.092939
   46  O  3 ZZ   -0.024979   0.022349   0.000000   0.021609  -0.007166
   47  O  3 XY    0.000000   0.000000   0.039750   0.000000   0.000000
   48  O  3 XZ   -0.000421   0.055436   0.000000   0.030934   0.158460
   49  O  3 YZ    0.000000   0.000000   0.013927   0.000000   0.000000

                     36         37         38         39         40
                    1.6393     2.0820     2.0822     2.0847     2.0890
                     A1         B1         A2         B2         A1  
    1  S  1  S   -0.027888   0.000000   0.000000   0.000000  -0.001313
    2  S  1  S   -0.275890   0.000000   0.000000   0.000000  -0.003723
    3  S  1  S   -0.639979   0.000000   0.000000   0.000000  -0.019491
    4  S  1  S    1.862541   0.000000   0.000000   0.000000   0.013009
    5  S  1  X    0.000000  -0.003825   0.000000   0.000000   0.000000
    6  S  1  Y    0.000000   0.000000   0.000000  -0.007765   0.000000
    7  S  1  Z   -0.013167   0.000000   0.000000   0.000000   0.003326
    8  S  1  X    0.000000   0.005250   0.000000   0.000000   0.000000
    9  S  1  Y    0.000000   0.000000   0.000000   0.017311   0.000000
   10  S  1  Z    0.075241   0.000000   0.000000   0.000000  -0.012807
   11  S  1  X    0.000000   0.066643   0.000000   0.000000   0.000000
   12  S  1  Y    0.000000   0.000000   0.000000   0.038200   0.000000
   13  S  1  Z    0.752631   0.000000   0.000000   0.000000   0.002910
   14  S  1 XX    0.317352   0.000000   0.000000   0.000000   0.021895
   15  S  1 YY   -0.302404   0.000000   0.000000   0.000000  -0.050437
   16  S  1 ZZ   -0.014947   0.000000   0.000000   0.000000   0.028542
   17  S  1 XY    0.000000   0.000000   0.029265   0.000000   0.000000
   18  S  1 XZ    0.000000  -0.035411   0.000000   0.000000   0.000000
   19  S  1 YZ    0.000000   0.000000   0.000000   0.000197   0.000000
   20  O  2  S   -0.004630   0.000494   0.000000   0.000000   0.001169
   21  O  2  S    1.139445  -0.031518   0.000000   0.000000  -0.005693
   22  O  2  S   -1.717575   0.052558   0.000000   0.000000  -0.002608
   23  O  2  X    0.092709   0.008484   0.000000   0.000000  -0.010431
   24  O  2  Y    0.000000   0.000000  -0.006889   0.013616   0.000000
   25  O  2  Z    0.015446   0.018282   0.000000   0.000000   0.001890
   26  O  2  X   -0.634846  -0.008640   0.000000   0.000000   0.008407
   27  O  2  Y    0.000000   0.000000   0.010496  -0.023585   0.000000
   28  O  2  Z    0.151178  -0.032687   0.000000   0.000000  -0.000171
   29  O  2 XX    0.189207  -0.362337   0.000000   0.000000  -0.114288
   30  O  2 YY   -0.125618   0.566205   0.000000   0.000000   0.599299
   31  O  2 ZZ   -0.063589  -0.203868   0.000000   0.000000  -0.485011
   32  O  2 XY    0.000000   0.000000   0.471767   0.159628   0.000000
   33  O  2 XZ   -0.136354  -0.414305   0.000000   0.000000  -0.308042
   34  O  2 YZ    0.000000   0.000000   0.526896   0.689300   0.000000
   35  O  3  S   -0.004630  -0.000494   0.000000   0.000000   0.001169
   36  O  3  S    1.139445   0.031518   0.000000   0.000000  -0.005693
   37  O  3  S   -1.717575  -0.052558   0.000000   0.000000  -0.002608
   38  O  3  X   -0.092709   0.008484   0.000000   0.000000   0.010431
   39  O  3  Y    0.000000   0.000000   0.006889   0.013616   0.000000
   40  O  3  Z    0.015446  -0.018282   0.000000   0.000000   0.001890
   41  O  3  X    0.634846  -0.008640   0.000000   0.000000  -0.008407
   42  O  3  Y    0.000000   0.000000  -0.010496  -0.023585   0.000000
   43  O  3  Z    0.151178   0.032687   0.000000   0.000000  -0.000171
   44  O  3 XX    0.189207   0.362337   0.000000   0.000000  -0.114288
   45  O  3 YY   -0.125618  -0.566205   0.000000   0.000000   0.599299
   46  O  3 ZZ   -0.063589   0.203868   0.000000   0.000000  -0.485011
   47  O  3 XY    0.000000   0.000000   0.471767  -0.159628   0.000000
   48  O  3 XZ    0.136354  -0.414305   0.000000   0.000000   0.308042
   49  O  3 YZ    0.000000   0.000000  -0.526896   0.689300   0.000000

                     41         42         43         44         45
                    2.0993     2.1303     2.1619     2.2236     2.5033
                     B1         B2         A2         A1         A1  
    1  S  1  S    0.000000   0.000000   0.000000   0.001875   0.015853
    2  S  1  S    0.000000   0.000000   0.000000   0.050338  -0.142804
    3  S  1  S    0.000000   0.000000   0.000000   0.080906   0.008089
    4  S  1  S    0.000000   0.000000   0.000000  -0.351031   1.093802
    5  S  1  X   -0.027599   0.000000   0.000000   0.000000   0.000000
    6  S  1  Y    0.000000   0.024163   0.000000   0.000000   0.000000
    7  S  1  Z    0.000000   0.000000   0.000000   0.031333  -0.090776
    8  S  1  X    0.095923   0.000000   0.000000   0.000000   0.000000
    9  S  1  Y    0.000000  -0.049201   0.000000   0.000000   0.000000
   10  S  1  Z    0.000000   0.000000   0.000000  -0.085120   0.382987
   11  S  1  X    0.136211   0.000000   0.000000   0.000000   0.000000
   12  S  1  Y    0.000000  -0.152814   0.000000   0.000000   0.000000
   13  S  1  Z    0.000000   0.000000   0.000000  -0.286368   0.294600
   14  S  1 XX    0.000000   0.000000   0.000000   0.185452   0.511847
   15  S  1 YY    0.000000   0.000000   0.000000   0.081521  -0.400742
   16  S  1 ZZ    0.000000   0.000000   0.000000  -0.266972  -0.111104
   17  S  1 XY    0.000000   0.000000   0.296942   0.000000   0.000000
   18  S  1 XZ   -0.101511   0.000000   0.000000   0.000000   0.000000
   19  S  1 YZ    0.000000  -0.189678   0.000000   0.000000   0.000000
   20  O  2  S    0.000345   0.000000   0.000000  -0.000755   0.014864
   21  O  2  S   -0.109171   0.000000   0.000000  -0.193565   0.575865
   22  O  2  S    0.167552   0.000000   0.000000   0.322814  -0.996948
   23  O  2  X   -0.009358   0.000000   0.000000  -0.062289   0.082436
   24  O  2  Y    0.000000  -0.051766  -0.036988   0.000000   0.000000
   25  O  2  Z    0.046746   0.000000   0.000000  -0.033344  -0.039486
   26  O  2  X    0.034448   0.000000   0.000000   0.200839  -0.532078
   27  O  2  Y    0.000000   0.109062   0.077082   0.000000   0.000000
   28  O  2  Z   -0.089263   0.000000   0.000000   0.067314   0.274273
   29  O  2 XX   -0.387735   0.000000   0.000000   0.572993  -0.398765
   30  O  2 YY   -0.274295   0.000000   0.000000  -0.054015   0.379986
   31  O  2 ZZ    0.662031   0.000000   0.000000  -0.518978   0.018778
   32  O  2 XY    0.000000   0.695142   0.533329   0.000000   0.000000
   33  O  2 XZ   -0.244000   0.000000   0.000000   0.331977   0.574309
   34  O  2 YZ    0.000000  -0.164697  -0.474816   0.000000   0.000000
   35  O  3  S   -0.000345   0.000000   0.000000  -0.000755   0.014864
   36  O  3  S    0.109171   0.000000   0.000000  -0.193565   0.575865
   37  O  3  S   -0.167552   0.000000   0.000000   0.322814  -0.996948
   38  O  3  X   -0.009358   0.000000   0.000000   0.062289  -0.082436
   39  O  3  Y    0.000000  -0.051766   0.036988   0.000000   0.000000
   40  O  3  Z   -0.046746   0.000000   0.000000  -0.033344  -0.039486
   41  O  3  X    0.034448   0.000000   0.000000  -0.200839   0.532078
   42  O  3  Y    0.000000   0.109062  -0.077082   0.000000   0.000000
   43  O  3  Z    0.089263   0.000000   0.000000   0.067314   0.274273
   44  O  3 XX    0.387735   0.000000   0.000000   0.572993  -0.398765
   45  O  3 YY    0.274295   0.000000   0.000000  -0.054015   0.379986
   46  O  3 ZZ   -0.662031   0.000000   0.000000  -0.518978   0.018778
   47  O  3 XY    0.000000  -0.695142   0.533329   0.000000   0.000000
   48  O  3 XZ   -0.244000   0.000000   0.000000  -0.331977  -0.574309
   49  O  3 YZ    0.000000  -0.164697   0.474816   0.000000   0.000000

                     46
                    2.5624
                     B1  
    1  S  1  S    0.000000
    2  S  1  S    0.000000
    3  S  1  S    0.000000
    4  S  1  S    0.000000
    5  S  1  X   -0.155716
    6  S  1  Y    0.000000
    7  S  1  Z    0.000000
    8  S  1  X    0.645098
    9  S  1  Y    0.000000
   10  S  1  Z    0.000000
   11  S  1  X    0.388807
   12  S  1  Y    0.000000
   13  S  1  Z    0.000000
   14  S  1 XX    0.000000
   15  S  1 YY    0.000000
   16  S  1 ZZ    0.000000
   17  S  1 XY    0.000000
   18  S  1 XZ    0.564353
   19  S  1 YZ    0.000000
   20  O  2  S   -0.015703
   21  O  2  S   -0.481283
   22  O  2  S    0.842786
   23  O  2  X   -0.049502
   24  O  2  Y    0.000000
   25  O  2  Z    0.034587
   26  O  2  X    0.433621
   27  O  2  Y    0.000000
   28  O  2  Z   -0.272264
   29  O  2 XX    0.507003
   30  O  2 YY   -0.344385
   31  O  2 ZZ   -0.162619
   32  O  2 XY    0.000000
   33  O  2 XZ   -0.545010
   34  O  2 YZ    0.000000
   35  O  3  S    0.015703
   36  O  3  S    0.481283
   37  O  3  S   -0.842786
   38  O  3  X   -0.049502
   39  O  3  Y    0.000000
   40  O  3  Z   -0.034587
   41  O  3  X    0.433621
   42  O  3  Y    0.000000
   43  O  3  Z    0.272264
   44  O  3 XX   -0.507003
   45  O  3 YY    0.344385
   46  O  3 ZZ    0.162619
   47  O  3 XY    0.000000
   48  O  3 XZ   -0.545010
   49  O  3 YZ    0.000000
 ...... END OF RHF CALCULATION ......
 STEP CPU TIME =     4.26 TOTAL CPU TIME =        4.4 (    0.1 MIN)
 TOTAL WALL CLOCK TIME=        4.4 SECONDS, CPU UTILIZATION IS  99.77%

     ---------------------------------------------------------------------
     PROPERTIES FOR THE PBE      DFT FUNCTIONAL (RHF  TYPE) DENSITY MATRIX
     ---------------------------------------------------------------------

          -----------------
          ENERGY COMPONENTS
          -----------------

         WAVEFUNCTION NORMALIZATION =       1.0000000000

                ONE ELECTRON ENERGY =    -936.9006880338
                TWO ELECTRON ENERGY =     297.5009580053
           NUCLEAR REPULSION ENERGY =      91.1898211485
                                      ------------------
                       TOTAL ENERGY =    -548.2099088800

 ELECTRON-ELECTRON POTENTIAL ENERGY =     297.5009580053
  NUCLEUS-ELECTRON POTENTIAL ENERGY =   -1483.7537844103
   NUCLEUS-NUCLEUS POTENTIAL ENERGY =      91.1898211485
                                      ------------------
             TOTAL POTENTIAL ENERGY =   -1095.0630052565
               TOTAL KINETIC ENERGY =     546.8530963765
                 VIRIAL RATIO (V/T) =       2.0024811280

          ---------------------------------------
          MULLIKEN AND LOWDIN POPULATION ANALYSES
          ---------------------------------------

     ATOMIC MULLIKEN POPULATION IN EACH MOLECULAR ORBITAL

                      1          2          3          4          5

                  2.000000   2.000000   2.000000   2.000000   2.000000

    1             2.000002   0.000950   0.000846   2.000274   1.999955
    2            -0.000001   0.999525   0.999577  -0.000137   0.000023
    3            -0.000001   0.999525   0.999577  -0.000137   0.000023

                      6          7          8          9         10

                  2.000000   2.000000   2.000000   2.000000   2.000000

    1             2.000004   1.999951   0.590239   0.211774   1.195833
    2            -0.000002   0.000024   0.704880   0.894113   0.402083
    3            -0.000002   0.000024   0.704880   0.894113   0.402083

                     11         12         13         14         15

                  2.000000   2.000000   2.000000   2.000000   2.000000

    1             0.563165   1.069593   1.163154   0.046168   0.091676
    2             0.718417   0.465203   0.418423   0.976916   0.954162
    3             0.718417   0.465203   0.418423   0.976916   0.954162

                     16

                  2.000000

    1             0.252260
    2             0.873870
    3             0.873870

               ----- POPULATIONS IN EACH AO -----
                             MULLIKEN      LOWDIN
              1  S  1  S      2.00022     1.99598
              2  S  1  S      2.01027     1.97304
              3  S  1  S      1.00625     0.63213
              4  S  1  S      0.86233     0.54963
              5  S  1  X      1.99624     1.95259
              6  S  1  Y      1.99626     1.95588
              7  S  1  Z      1.99677     1.95930
              8  S  1  X      0.64021     0.58623
              9  S  1  Y      0.68095     0.65516
             10  S  1  Z      0.77447     0.74528
             11  S  1  X      0.16025     0.29987
             12  S  1  Y      0.47984     0.52681
             13  S  1  Z      0.35782     0.46662
             14  S  1 XX      0.03620     0.25871
             15  S  1 YY      0.06477     0.25989
             16  S  1 ZZ      0.04617     0.25880
             17  S  1 XY      0.07072     0.05379
             18  S  1 XZ      0.00611     0.08969
             19  S  1 YZ      0.00000     0.00584
             20  O  2  S      1.99805     1.98112
             21  O  2  S      0.85173     0.66843
             22  O  2  S      1.10554     0.59744
             23  O  2  X      0.82485     0.78407
             24  O  2  Y      0.83182     0.79969
             25  O  2  Z      1.05580     1.02432
             26  O  2  X      0.50651     0.58600
             27  O  2  Y      0.56023     0.59750
             28  O  2  Z      0.66009     0.71005
             29  O  2 XX      0.00181     0.21086
             30  O  2 YY      0.00331     0.21175
             31  O  2 ZZ      0.00245     0.20612
             32  O  2 XY      0.00405     0.00305
             33  O  2 XZ      0.00084     0.00598
             34  O  2 YZ      0.00000     0.00102
             35  O  3  S      1.99805     1.98112
             36  O  3  S      0.85173     0.66843
             37  O  3  S      1.10554     0.59744
             38  O  3  X      0.82485     0.78407
             39  O  3  Y      0.83182     0.79969
             40  O  3  Z      1.05580     1.02432
             41  O  3  X      0.50651     0.58600
             42  O  3  Y      0.56023     0.59750
             43  O  3  Z      0.66009     0.71005
             44  O  3 XX      0.00181     0.21086
             45  O  3 YY      0.00331     0.21175
             46  O  3 ZZ      0.00245     0.20612
             47  O  3 XY      0.00405     0.00305
             48  O  3 XZ      0.00084     0.00598
             49  O  3 YZ      0.00000     0.00102

          ----- MULLIKEN ATOMIC OVERLAP POPULATIONS -----
          (OFF-DIAGONAL ELEMENTS NEED TO BE MULTIPLIED BY 2)

             1           2           3

    1   14.6870013
    2    0.2494211   8.1760899
    3    0.2494211  -0.0184328   8.1760899

          TOTAL MULLIKEN AND LOWDIN ATOMIC POPULATIONS
       ATOM         MULL.POP.    CHARGE          LOW.POP.     CHARGE
    1 S            15.185844    0.814156        15.225244    0.774756
    2 O             8.407078   -0.407078         8.387378   -0.387378
    3 O             8.407078   -0.407078         8.387378   -0.387378

          MULLIKEN SPHERICAL HARMONIC POPULATIONS
       ATOM           S       P       D      F      G      H      I    TOTAL
    1 S             5.88    9.08    0.22   0.00   0.00   0.00   0.00   15.19
    2 O             3.96    4.44    0.01   0.00   0.00   0.00   0.00    8.41
    3 O             3.96    4.44    0.01   0.00   0.00   0.00   0.00    8.41

          -------------------------------
          BOND ORDER AND VALENCE ANALYSIS     BOND ORDER THRESHOLD=0.050
          -------------------------------

                   BOND                       BOND                       BOND
  ATOM PAIR DIST  ORDER      ATOM PAIR DIST  ORDER      ATOM PAIR DIST  ORDER
    1   2  1.700  1.642        1   3  1.700  1.642        2   3  2.944  0.459

                       TOTAL       BONDED        FREE
      ATOM            VALENCE     VALENCE     VALENCE
    1 S                 3.285       3.285       0.000
    2 O                 2.101       2.101       0.000
    3 O                 2.101       2.101       0.000

          ---------------------
          ELECTROSTATIC MOMENTS
          ---------------------

 POINT   1           X           Y           Z (BOHR)    CHARGE
                 0.000000    0.000000    0.000000        0.00 (A.U.)
         DX          DY          DZ         /D/  (DEBYE)
     0.000000    0.000000   -2.138360    2.138360
 ...... END OF PROPERTY EVALUATION ......
 STEP CPU TIME =     0.01 TOTAL CPU TIME =        4.4 (    0.1 MIN)
 TOTAL WALL CLOCK TIME=        4.4 SECONDS, CPU UTILIZATION IS  99.78%
               580000  WORDS OF DYNAMIC MEMORY USED
 EXECUTION OF GAMESS TERMINATED NORMALLY Thu Feb 26 00:19:23 2015
 DDI: 263624 bytes (0.3 MB / 0 MWords) used by master data server.

 ----------------------------------------
 CPU timing information for all processes
 ========================================
 0: 4.422 + 0.29 = 4.452
 ----------------------------------------
 ddikick.x: exited gracefully.
----- accounting info -----
Files used on the master node dftfe.crc.nd.edu were:
-rw-r--r-- 1 pmehta1 campus   37475 Feb 26 00:19 /tmp/gamess.dat
-rw-r--r-- 1 pmehta1 campus     142 Feb 26 00:19 /tmp/gamess.F05
-rw-r--r-- 1 pmehta1 campus 2160288 Feb 26 00:19 /tmp/gamess.F08
-rw-r--r-- 1 pmehta1 campus 1220440 Feb 26 00:19 /tmp/gamess.F10
Thu Feb 26 00:19:26 EST 2015
0.240u 0.179s 0:07.90 5.1%	0+0k 0+104io 0pf+0w
