 Entering Gaussian System, Link 0=g03
 Input=e-C2H4F2.com
 Output=e-C2H4F2.log
 Initial command:
 /opt/und/gaussian/03D01/linux86-64/g03/l1.exe /scratch/Gau-21394.inp -scrdir=/scratch/
 Entering Link 1 = /opt/und/gaussian/03D01/linux86-64/g03/l1.exe PID=     21395.
  
 Copyright (c) 1988,1990,1992,1993,1995,1998,2003,2004, Gaussian, Inc.
                  All Rights Reserved.
  
 This is the Gaussian(R) 03 program.  It is based on the
 the Gaussian(R) 98 system (copyright 1998, Gaussian, Inc.),
 the Gaussian(R) 94 system (copyright 1995, Gaussian, Inc.),
 the Gaussian 92(TM) system (copyright 1992, Gaussian, Inc.),
 the Gaussian 90(TM) system (copyright 1990, Gaussian, Inc.),
 the Gaussian 88(TM) system (copyright 1988, Gaussian, Inc.),
 the Gaussian 86(TM) system (copyright 1986, Carnegie Mellon
 University), and the Gaussian 82(TM) system (copyright 1983,
 Carnegie Mellon University). Gaussian is a federally registered
 trademark of Gaussian, Inc.
  
 This software contains proprietary and confidential information,
 including trade secrets, belonging to Gaussian, Inc.
  
 This software is provided under written license and may be
 used, copied, transmitted, or stored only in accord with that
 written license.
  
 The following legend is applicable only to US Government
 contracts under FAR:
  
                    RESTRICTED RIGHTS LEGEND
  
 Use, reproduction and disclosure by the US Government is
 subject to restrictions as set forth in subparagraphs (a)
 and (c) of the Commercial Computer Software - Restricted
 Rights clause in FAR 52.227-19.
  
 Gaussian, Inc.
 340 Quinnipiac St., Bldg. 40, Wallingford CT 06492
  
  
 ---------------------------------------------------------------
 Warning -- This program may not be used in any manner that
 competes with the business of Gaussian, Inc. or will provide
 assistance to any competitor of Gaussian, Inc.  The licensee
 of this program is prohibited from giving any competitor of
 Gaussian, Inc. access to this program.  By using this program,
 the user acknowledges that Gaussian, Inc. is engaged in the
 business of creating and licensing software in the field of
 computational chemistry and represents and warrants to the
 licensee that it is not a competitor of Gaussian, Inc. and that
 it will not use this program in any manner prohibited above.
 ---------------------------------------------------------------
  

 Cite this work as:
 Gaussian 03, Revision D.01,
 M. J. Frisch, G. W. Trucks, H. B. Schlegel, G. E. Scuseria, 
 M. A. Robb, J. R. Cheeseman, J. A. Montgomery, Jr., T. Vreven, 
 K. N. Kudin, J. C. Burant, J. M. Millam, S. S. Iyengar, J. Tomasi, 
 V. Barone, B. Mennucci, M. Cossi, G. Scalmani, N. Rega, 
 G. A. Petersson, H. Nakatsuji, M. Hada, M. Ehara, K. Toyota, 
 R. Fukuda, J. Hasegawa, M. Ishida, T. Nakajima, Y. Honda, O. Kitao, 
 H. Nakai, M. Klene, X. Li, J. E. Knox, H. P. Hratchian, J. B. Cross, 
 V. Bakken, C. Adamo, J. Jaramillo, R. Gomperts, R. E. Stratmann, 
 O. Yazyev, A. J. Austin, R. Cammi, C. Pomelli, J. W. Ochterski, 
 P. Y. Ayala, K. Morokuma, G. A. Voth, P. Salvador, J. J. Dannenberg, 
 V. G. Zakrzewski, S. Dapprich, A. D. Daniels, M. C. Strain, 
 O. Farkas, D. K. Malick, A. D. Rabuck, K. Raghavachari, 
 J. B. Foresman, J. V. Ortiz, Q. Cui, A. G. Baboul, S. Clifford, 
 J. Cioslowski, B. B. Stefanov, G. Liu, A. Liashenko, P. Piskorz, 
 I. Komaromi, R. L. Martin, D. J. Fox, T. Keith, M. A. Al-Laham, 
 C. Y. Peng, A. Nanayakkara, M. Challacombe, P. M. W. Gill, 
 B. Johnson, W. Chen, M. W. Wong, C. Gonzalez, and J. A. Pople, 
 Gaussian, Inc., Wallingford CT, 2004.
 
 ******************************************
 Gaussian 03:  AM64L-G03RevD.01 13-Oct-2005
                29-Oct-2007 
 ******************************************
 %chk=e-C2H4F2-G2.chk
 %mem=6MW
 %nproc=1
 Will use up to    1 processors via shared memory.
 ----------------------
 #N PBEPBE/6-31G(d) opt
 ----------------------
 1/14=-1,18=20,26=3,38=1/1,3;
 2/9=110,17=6,18=5,40=1/2;
 3/5=1,6=6,7=1,11=2,16=1,25=1,30=1,74=1009/1,2,3;
 4//1;
 5/5=2,38=5/2;
 6/7=2,8=2,9=2,10=2,28=1/1;
 7//1,2,3,16;
 1/14=-1,18=20/3(3);
 2/9=110/2;
 6/7=2,8=2,9=2,10=2,19=2,28=1/1;
 99//99;
 2/9=110/2;
 3/5=1,6=6,7=1,11=2,16=1,25=1,30=1,74=1009/1,2,3;
 4/5=5,16=3/1;
 5/5=2,38=5/2;
 7//1,2,3,16;
 1/14=-1,18=20/3(-5);
 2/9=110/2;
 6/7=2,8=2,9=2,10=2,19=2,28=1/1;
 99/9=1/99;
 -----------
 e-C2H4F2 G2
 -----------
 Symbolic Z-matrix:
 Charge =  0 Multiplicity = 1
 C
 C                    1    r1
 F                    2    r2       1    A1
 H                    2    r3       1    A2       3    D1       0
 H                    2    r3       1    A2       3    D2       0
 F                    1    r2       2    A1       3    D3       0
 H                    1    r3       2    A2       6    D1       0
 H                    1    r3       2    A2       6    D2       0
       Variables:
  r1                    1.5386                   
  r2                    1.39462                  
  r3                    1.11456                  
  D1                  120.                       
  D2                 -120.                       
  A1                  109.54214                  
  D3                    0.                       
  A2                  110.09239                  
 

 GradGradGradGradGradGradGradGradGradGradGradGradGradGradGradGradGradGrad
 Berny optimization.
 Initialization pass.
                           ----------------------------
                           !    Initial Parameters    !
                           ! (Angstroms and Degrees)  !
 --------------------------                            --------------------------
 ! Name  Definition              Value          Derivative Info.                !
 --------------------------------------------------------------------------------
 ! R1    R(1,2)                  1.5386         estimate D2E/DX2                !
 ! R2    R(1,6)                  1.3946         estimate D2E/DX2                !
 ! R3    R(1,7)                  1.1146         estimate D2E/DX2                !
 ! R4    R(1,8)                  1.1146         estimate D2E/DX2                !
 ! R5    R(2,3)                  1.3946         estimate D2E/DX2                !
 ! R6    R(2,4)                  1.1146         estimate D2E/DX2                !
 ! R7    R(2,5)                  1.1146         estimate D2E/DX2                !
 ! A1    A(2,1,6)              109.5421         estimate D2E/DX2                !
 ! A2    A(2,1,7)              110.0924         estimate D2E/DX2                !
 ! A3    A(2,1,8)              110.0924         estimate D2E/DX2                !
 ! A4    A(6,1,7)              109.1237         estimate D2E/DX2                !
 ! A5    A(6,1,8)              109.1237         estimate D2E/DX2                !
 ! A6    A(7,1,8)              108.843          estimate D2E/DX2                !
 ! A7    A(1,2,3)              109.5421         estimate D2E/DX2                !
 ! A8    A(1,2,4)              110.0924         estimate D2E/DX2                !
 ! A9    A(1,2,5)              110.0924         estimate D2E/DX2                !
 ! A10   A(3,2,4)              109.1237         estimate D2E/DX2                !
 ! A11   A(3,2,5)              109.1237         estimate D2E/DX2                !
 ! A12   A(4,2,5)              108.843          estimate D2E/DX2                !
 ! D1    D(6,1,2,3)              0.0            estimate D2E/DX2                !
 ! D2    D(6,1,2,4)            120.0            estimate D2E/DX2                !
 ! D3    D(6,1,2,5)           -120.0            estimate D2E/DX2                !
 ! D4    D(7,1,2,3)            120.0            estimate D2E/DX2                !
 ! D5    D(7,1,2,4)           -120.0            estimate D2E/DX2                !
 ! D6    D(7,1,2,5)              0.0            estimate D2E/DX2                !
 ! D7    D(8,1,2,3)           -120.0            estimate D2E/DX2                !
 ! D8    D(8,1,2,4)              0.0            estimate D2E/DX2                !
 ! D9    D(8,1,2,5)            120.0            estimate D2E/DX2                !
 --------------------------------------------------------------------------------
 Trust Radius=3.00D-01 FncErr=1.00D-07 GrdErr=1.00D-06
 Number of steps in this run=  38 maximum allowed number of steps= 100.
 GradGradGradGradGradGradGradGradGradGradGradGradGradGradGradGradGradGrad

                          Input orientation:                          
 ---------------------------------------------------------------------
 Center     Atomic     Atomic              Coordinates (Angstroms)
 Number     Number      Type              X           Y           Z
 ---------------------------------------------------------------------
    1          6             0        0.000000    0.000000    0.000000
    2          6             0        0.000000    0.000000    1.538600
    3          9             0        1.314284    0.000000    2.005100
    4          1             0       -0.523364    0.906493    1.921490
    5          1             0       -0.523364   -0.906493    1.921490
    6          9             0        1.314284    0.000000   -0.466500
    7          1             0       -0.523364   -0.906493   -0.382890
    8          1             0       -0.523364    0.906493   -0.382890
 ---------------------------------------------------------------------
                    Distance matrix (angstroms):
                    1          2          3          4          5
     1  C    0.000000
     2  C    1.538600   0.000000
     3  F    2.397451   1.394620   0.000000
     4  H    2.188096   1.114560   2.050773   0.000000
     5  H    2.188096   1.114560   2.050773   1.812986   0.000000
     6  F    1.394620   2.397451   2.471601   3.146614   3.146614
     7  H    1.114560   2.188096   3.146614   2.932079   2.304381
     8  H    1.114560   2.188096   3.146614   2.304381   2.932079
                    6          7          8
     6  F    0.000000
     7  H    2.050773   0.000000
     8  H    2.050773   1.812986   0.000000
 Stoichiometry    C2H4F2
 Framework group  C2V[SGV(C2F2),X(H4)]
 Deg. of freedom     6
 Full point group                 C2V
 Largest Abelian subgroup         C2V     NOp   4
 Largest concise Abelian subgroup C2V     NOp   4
                         Standard orientation:                         
 ---------------------------------------------------------------------
 Center     Atomic     Atomic              Coordinates (Angstroms)
 Number     Number      Type              X           Y           Z
 ---------------------------------------------------------------------
    1          6             0        0.000000    0.769300    0.634225
    2          6             0        0.000000   -0.769300    0.634225
    3          9             0        0.000000   -1.235800   -0.680059
    4          1             0        0.906493   -1.152190    1.157589
    5          1             0       -0.906493   -1.152190    1.157589
    6          9             0        0.000000    1.235800   -0.680059
    7          1             0       -0.906493    1.152190    1.157589
    8          1             0        0.906493    1.152190    1.157589
 ---------------------------------------------------------------------
 Rotational constants (GHZ):     14.2743717      6.2471964      4.6079146
 Standard basis: 6-31G(d) (6D, 7F)
 There are    24 symmetry adapted basis functions of A1  symmetry.
 There are    10 symmetry adapted basis functions of A2  symmetry.
 There are    10 symmetry adapted basis functions of B1  symmetry.
 There are    24 symmetry adapted basis functions of B2  symmetry.
 Integral buffers will be    131072 words long.
 Raffenetti 2 integral format.
 Two-electron integral symmetry is turned on.
    68 basis functions,   128 primitive gaussians,    68 cartesian basis functions
    17 alpha electrons       17 beta electrons
       nuclear repulsion energy       128.4887118849 Hartrees.
 NAtoms=    8 NActive=    8 NUniq=    3 SFac= 3.00D+00 NAtFMM=   80 NAOKFM=F Big=F
 One-electron integrals computed using PRISM.
 NBasis=    68 RedAO= T  NBF=    24    10    10    24
 NBsUse=    68 1.00D-06 NBFU=    24    10    10    24
 Harris functional with IExCor= 1009 diagonalized for initial guess.
 ExpMin= 1.61D-01 ExpMax= 7.00D+03 ExpMxC= 1.05D+03 IAcc=1 IRadAn=         1 AccDes= 1.00D-06
 HarFok:  IExCor=1009 AccDes= 1.00D-06 IRadAn=         1 IDoV=1
 ScaDFX=  1.000000  1.000000  1.000000  1.000000
 Initial guess orbital symmetries:
       Occupied  (B2) (A1) (A1) (B2) (A1) (B2) (A1) (B2) (A1) (B1)
                 (A1) (B2) (A2) (B2) (B1) (A1) (A2)
       Virtual   (A1) (A1) (B1) (B2) (B2) (B2) (A2) (A1) (B1) (A1)
                 (B2) (B2) (A1) (A2) (B1) (A2) (A1) (B2) (A1) (B2)
                 (A1) (B1) (B2) (A1) (A2) (B1) (B2) (B2) (A1) (A1)
                 (A2) (B1) (A2) (A1) (B2) (A1) (B1) (B2) (B2) (A1)
                 (A2) (B1) (B2) (A2) (B2) (A1) (B2) (A1) (A1) (B2)
                 (B2)
 The electronic state of the initial guess is 1-A1.
 Requested convergence on RMS density matrix=1.00D-08 within 128 cycles.
 Requested convergence on MAX density matrix=1.00D-06.
 Requested convergence on             energy=1.00D-06.
 No special actions if energy rises.
 Keep R1 integrals in memory in canonical form, NReq=     4561737.
 Integral accuracy reduced to 1.0D-05 until final iterations.
 Initial convergence to 1.0D-05 achieved.  Increase integral accuracy.
 SCF Done:  E(RPBE-PBE) =  -277.963729337     A.U. after   12 cycles
             Convg  =    0.3050D-08             -V/T =  2.0074
             S**2   =   0.0000

 **********************************************************************

            Population analysis using the SCF density.

 **********************************************************************

 Orbital symmetries:
       Occupied  (A1) (B2) (A1) (B2) (A1) (B2) (A1) (B2) (B1) (A1)
                 (A1) (B2) (A2) (B2) (B1) (A1) (A2)
       Virtual   (A1) (A1) (B1) (B2) (B2) (A2) (B2) (A1) (B1) (B2)
                 (A1) (B2) (A1) (A2) (B1) (A2) (A1) (B2) (A1) (B2)
                 (A1) (B1) (B2) (A1) (A2) (B1) (B2) (B2) (A1) (A1)
                 (A2) (B1) (A2) (A1) (B2) (A1) (B2) (B1) (B2) (A1)
                 (A2) (B1) (B2) (A2) (B2) (A1) (B2) (A1) (A1) (B2)
                 (B2)
 The electronic state is 1-A1.
 Alpha  occ. eigenvalues --  -24.24962 -24.24962  -9.97749  -9.97739  -1.08333
 Alpha  occ. eigenvalues --   -1.06493  -0.68733  -0.56232  -0.45445  -0.45123
 Alpha  occ. eigenvalues --   -0.42480  -0.40266  -0.38393  -0.30059  -0.29136
 Alpha  occ. eigenvalues --   -0.26915  -0.26085
 Alpha virt. eigenvalues --    0.02114   0.06952   0.08095   0.12175   0.16027
 Alpha virt. eigenvalues --    0.18370   0.20599   0.46106   0.51402   0.51508
 Alpha virt. eigenvalues --    0.51640   0.55431   0.71948   0.73794   0.75390
 Alpha virt. eigenvalues --    0.79367   0.82601   0.84236   1.04734   1.06119
 Alpha virt. eigenvalues --    1.08748   1.12987   1.28844   1.34903   1.35461
 Alpha virt. eigenvalues --    1.37424   1.37749   1.63693   1.64709   1.70807
 Alpha virt. eigenvalues --    1.75846   1.75995   1.78361   1.81975   1.85904
 Alpha virt. eigenvalues --    1.96719   1.97656   1.98219   2.07708   2.19994
 Alpha virt. eigenvalues --    2.26047   2.26510   2.38948   2.39818   2.65396
 Alpha virt. eigenvalues --    2.85981   2.95665   3.80406   4.07007   4.33549
 Alpha virt. eigenvalues --    4.42523
          Condensed to atoms (all electrons):
              1          2          3          4          5          6
     1  C    4.919998   0.268120  -0.040195  -0.044104  -0.044104   0.273496
     2  C    0.268120   4.919998   0.273496   0.347861   0.347861  -0.040195
     3  F   -0.040195   0.273496   9.090333  -0.031280  -0.031280   0.002139
     4  H   -0.044104   0.347861  -0.031280   0.632333  -0.052424   0.001457
     5  H   -0.044104   0.347861  -0.031280  -0.052424   0.632333   0.001457
     6  F    0.273496  -0.040195   0.002139   0.001457   0.001457   9.090333
     7  H    0.347861  -0.044104   0.001457   0.005959  -0.007333  -0.031280
     8  H    0.347861  -0.044104   0.001457  -0.007333   0.005959  -0.031280
              7          8
     1  C    0.347861   0.347861
     2  C   -0.044104  -0.044104
     3  F    0.001457   0.001457
     4  H    0.005959  -0.007333
     5  H   -0.007333   0.005959
     6  F   -0.031280  -0.031280
     7  H    0.632333  -0.052424
     8  H   -0.052424   0.632333
 Mulliken atomic charges:
              1
     1  C   -0.028932
     2  C   -0.028932
     3  F   -0.266128
     4  H    0.147530
     5  H    0.147530
     6  F   -0.266128
     7  H    0.147530
     8  H    0.147530
 Sum of Mulliken charges=   0.00000
 Atomic charges with hydrogens summed into heavy atoms:
              1
     1  C    0.266128
     2  C    0.266128
     3  F   -0.266128
     4  H    0.000000
     5  H    0.000000
     6  F   -0.266128
     7  H    0.000000
     8  H    0.000000
 Sum of Mulliken charges=   0.00000
 Electronic spatial extent (au):  <R**2>=   270.5849
 Charge=     0.0000 electrons
 Dipole moment (field-independent basis, Debye):
    X=     0.0000    Y=     0.0000    Z=     2.7071  Tot=     2.7071
 Quadrupole moment (field-independent basis, Debye-Ang):
   XX=   -21.5189   YY=   -24.1437   ZZ=   -21.9247
   XY=     0.0000   XZ=     0.0000   YZ=     0.0000
 Traceless Quadrupole moment (field-independent basis, Debye-Ang):
   XX=     1.0102   YY=    -1.6146   ZZ=     0.6044
   XY=     0.0000   XZ=     0.0000   YZ=     0.0000
 Octapole moment (field-independent basis, Debye-Ang**2):
  XXX=     0.0000  YYY=     0.0000  ZZZ=    -9.4498  XYY=     0.0000
  XXY=     0.0000  XXZ=    -2.2398  XZZ=     0.0000  YZZ=     0.0000
  YYZ=    -0.4929  XYZ=     0.0000
 Hexadecapole moment (field-independent basis, Debye-Ang**3):
 XXXX=   -31.7449 YYYY=  -169.2708 ZZZZ=   -89.4346 XXXY=     0.0000
 XXXZ=     0.0000 YYYX=     0.0000 YYYZ=     0.0000 ZZZX=     0.0000
 ZZZY=     0.0000 XXYY=   -31.5725 XXZZ=   -19.1281 YYZZ=   -42.1939
 XXYZ=     0.0000 YYXZ=     0.0000 ZZXY=     0.0000
 N-N= 1.284887118849D+02 E-N=-9.151335019767D+02  KE= 2.759090001395D+02
 Symmetry A1   KE= 1.302732408037D+02
 Symmetry A2   KE= 8.673864863156D+00
 Symmetry B1   KE= 8.168681064251D+00
 Symmetry B2   KE= 1.287932134084D+02
 Calling FoFCou, ICntrl=  2527 FMM=F ISym2X=1 I1Cent= 0 ISCF1= 0.
 ***** Axes restored to original set *****
 -------------------------------------------------------------------
 Center     Atomic                   Forces (Hartrees/Bohr)
 Number     Number              X              Y              Z
 -------------------------------------------------------------------
    1          6           0.001256993    0.000000000   -0.009760847
    2          6           0.001256993    0.000000000    0.009760847
    3          9          -0.007203273    0.000000000    0.000421790
    4          1           0.002973140   -0.004864189    0.000982037
    5          1           0.002973140    0.004864189    0.000982037
    6          9          -0.007203273    0.000000000   -0.000421790
    7          1           0.002973140    0.004864189   -0.000982037
    8          1           0.002973140   -0.004864189   -0.000982037
 -------------------------------------------------------------------
 Cartesian Forces:  Max     0.009760847 RMS     0.004241146

 GradGradGradGradGradGradGradGradGradGradGradGradGradGradGradGradGradGrad
 Berny optimization.
 Internal  Forces:  Max     0.012146711 RMS     0.004068772
 Search for a local minimum.
 Step number   1 out of a maximum of  38
 All quantities printed in internal units (Hartrees-Bohrs-Radians)
 Second derivative matrix not updated -- first step.
     Eigenvalues ---    0.00255   0.05675   0.05675   0.05889   0.05889
     Eigenvalues ---    0.16000   0.16000   0.16000   0.16000   0.22395
     Eigenvalues ---    0.22395   0.28643   0.32122   0.32122   0.32122
     Eigenvalues ---    0.32122   0.46524   0.465241000.000001000.00000
     Eigenvalues --- 1000.000001000.000001000.000001000.000001000.00000
     Eigenvalues --- 1000.000001000.000001000.00000
 RFO step:  Lambda=-1.72410205D-03.
 Linear search not attempted -- first point.
 Iteration  1 RMS(Cart)=  0.02903914 RMS(Int)=  0.00027636
 Iteration  2 RMS(Cart)=  0.00025883 RMS(Int)=  0.00011058
 Iteration  3 RMS(Cart)=  0.00000006 RMS(Int)=  0.00011058
 Variable       Old X    -DE/DX   Delta X   Delta X   Delta X     New X
                                 (Linear)    (Quad)   (Total)
    R1        2.90753   0.01215   0.00000   0.04215   0.04215   2.94969
    R2        2.63545  -0.00665   0.00000  -0.01424  -0.01424   2.62121
    R3        2.10621  -0.00501   0.00000  -0.01553  -0.01553   2.09068
    R4        2.10621  -0.00501   0.00000  -0.01553  -0.01553   2.09068
    R5        2.63545  -0.00665   0.00000  -0.01424  -0.01424   2.62121
    R6        2.10621  -0.00501   0.00000  -0.01553  -0.01553   2.09068
    R7        2.10621  -0.00501   0.00000  -0.01553  -0.01553   2.09068
    A1        1.91187   0.00393   0.00000   0.01683   0.01667   1.92854
    A2        1.92147   0.00284   0.00000   0.01899   0.01881   1.94029
    A3        1.92147   0.00284   0.00000   0.01899   0.01881   1.94029
    A4        1.90457  -0.00341   0.00000  -0.01921  -0.01936   1.88521
    A5        1.90457  -0.00341   0.00000  -0.01921  -0.01936   1.88521
    A6        1.89967  -0.00296   0.00000  -0.01728  -0.01748   1.88219
    A7        1.91187   0.00393   0.00000   0.01683   0.01667   1.92854
    A8        1.92147   0.00284   0.00000   0.01899   0.01881   1.94029
    A9        1.92147   0.00284   0.00000   0.01899   0.01881   1.94029
   A10        1.90457  -0.00341   0.00000  -0.01921  -0.01936   1.88521
   A11        1.90457  -0.00341   0.00000  -0.01921  -0.01936   1.88521
   A12        1.89967  -0.00296   0.00000  -0.01728  -0.01748   1.88219
    D1        0.00000   0.00000   0.00000   0.00000   0.00000   0.00000
    D2        2.09440   0.00003   0.00000  -0.00133  -0.00134   2.09305
    D3       -2.09440  -0.00003   0.00000   0.00133   0.00134  -2.09305
    D4        2.09440   0.00003   0.00000  -0.00133  -0.00134   2.09305
    D5       -2.09440   0.00006   0.00000  -0.00266  -0.00269  -2.09708
    D6        0.00000   0.00000   0.00000   0.00000   0.00000   0.00000
    D7       -2.09440  -0.00003   0.00000   0.00133   0.00134  -2.09305
    D8        0.00000   0.00000   0.00000   0.00000   0.00000   0.00000
    D9        2.09440  -0.00006   0.00000   0.00266   0.00269   2.09708
         Item               Value     Threshold  Converged?
 Maximum Force            0.012147     0.000450     NO 
 RMS     Force            0.004069     0.000300     NO 
 Maximum Displacement     0.057376     0.001800     NO 
 RMS     Displacement     0.028898     0.001200     NO 
 Predicted change in Energy=-8.687626D-04
 GradGradGradGradGradGradGradGradGradGradGradGradGradGradGradGradGradGrad

                          Input orientation:                          
 ---------------------------------------------------------------------
 Center     Atomic     Atomic              Coordinates (Angstroms)
 Number     Number      Type              X           Y           Z
 ---------------------------------------------------------------------
    1          6             0       -0.000609    0.000000   -0.011153
    2          6             0       -0.000609    0.000000    1.549753
    3          9             0        1.298659    0.000000    2.035463
    4          1             0       -0.515246    0.894150    1.949300
    5          1             0       -0.515246   -0.894150    1.949300
    6          9             0        1.298659    0.000000   -0.496863
    7          1             0       -0.515246   -0.894150   -0.410700
    8          1             0       -0.515246    0.894150   -0.410700
 ---------------------------------------------------------------------
                    Distance matrix (angstroms):
                    1          2          3          4          5
     1  C    0.000000
     2  C    1.560906   0.000000
     3  F    2.424198   1.387087   0.000000
     4  H    2.215340   1.106343   2.024149   0.000000
     5  H    2.215340   1.106343   2.024149   1.788301   0.000000
     6  F    1.387087   2.424198   2.532325   3.173873   3.173873
     7  H    1.106343   2.215340   3.173873   2.961017   2.360000
     8  H    1.106343   2.215340   3.173873   2.360000   2.961017
                    6          7          8
     6  F    0.000000
     7  H    2.024149   0.000000
     8  H    2.024149   1.788301   0.000000
 Stoichiometry    C2H4F2
 Framework group  C2V[SGV(C2F2),X(H4)]
 Deg. of freedom     6
 Full point group                 C2V
 Largest Abelian subgroup         C2V     NOp   4
 Largest concise Abelian subgroup C2V     NOp   4
                         Standard orientation:                         
 ---------------------------------------------------------------------
 Center     Atomic     Atomic              Coordinates (Angstroms)
 Number     Number      Type              X           Y           Z
 ---------------------------------------------------------------------
    1          6             0        0.000000    0.780453    0.627302
    2          6             0        0.000000   -0.780453    0.627302
    3          9             0        0.000000   -1.266163   -0.671966
    4          1             0        0.894150   -1.180000    1.141939
    5          1             0       -0.894150   -1.180000    1.141939
    6          9             0        0.000000    1.266163   -0.671966
    7          1             0       -0.894150    1.180000    1.141939
    8          1             0        0.894150    1.180000    1.141939
 ---------------------------------------------------------------------
 Rotational constants (GHZ):     14.6238167      5.9900275      4.4929527
 Standard basis: 6-31G(d) (6D, 7F)
 There are    24 symmetry adapted basis functions of A1  symmetry.
 There are    10 symmetry adapted basis functions of A2  symmetry.
 There are    10 symmetry adapted basis functions of B1  symmetry.
 There are    24 symmetry adapted basis functions of B2  symmetry.
 Integral buffers will be    131072 words long.
 Raffenetti 2 integral format.
 Two-electron integral symmetry is turned on.
    68 basis functions,   128 primitive gaussians,    68 cartesian basis functions
    17 alpha electrons       17 beta electrons
       nuclear repulsion energy       127.9325867614 Hartrees.
 NAtoms=    8 NActive=    8 NUniq=    3 SFac= 3.00D+00 NAtFMM=   80 NAOKFM=F Big=F
 One-electron integrals computed using PRISM.
 NBasis=    68 RedAO= T  NBF=    24    10    10    24
 NBsUse=    68 1.00D-06 NBFU=    24    10    10    24
 Initial guess read from the read-write file:
 Initial guess orbital symmetries:
       Occupied  (A1) (B2) (A1) (B2) (A1) (B2) (A1) (B2) (B1) (A1)
                 (A1) (B2) (A2) (B2) (B1) (A1) (A2)
       Virtual   (A1) (A1) (B1) (B2) (B2) (A2) (B2) (A1) (B1) (B2)
                 (A1) (B2) (A1) (A2) (B1) (A2) (A1) (B2) (A1) (B2)
                 (A1) (B1) (B2) (A1) (A2) (B1) (B2) (B2) (A1) (A1)
                 (A2) (B1) (A2) (A1) (B2) (A1) (B2) (B1) (B2) (A1)
                 (A2) (B1) (B2) (A2) (B2) (A1) (B2) (A1) (A1) (B2)
                 (B2)
 Harris functional with IExCor= 1009 diagonalized for initial guess.
 ExpMin= 1.61D-01 ExpMax= 7.00D+03 ExpMxC= 1.05D+03 IAcc=1 IRadAn=         1 AccDes= 1.00D-06
 HarFok:  IExCor=1009 AccDes= 1.00D-06 IRadAn=         1 IDoV=1
 ScaDFX=  1.000000  1.000000  1.000000  1.000000
 Requested convergence on RMS density matrix=1.00D-08 within 128 cycles.
 Requested convergence on MAX density matrix=1.00D-06.
 Requested convergence on             energy=1.00D-06.
 No special actions if energy rises.
 Keep R1 integrals in memory in canonical form, NReq=     4561737.
 Integral accuracy reduced to 1.0D-05 until final iterations.
 EnCoef did     1 forward-backward iterations
 Initial convergence to 1.0D-05 achieved.  Increase integral accuracy.
 SCF Done:  E(RPBE-PBE) =  -277.964305825     A.U. after   11 cycles
             Convg  =    0.2141D-08             -V/T =  2.0073
             S**2   =   0.0000
 Calling FoFCou, ICntrl=  2527 FMM=F ISym2X=1 I1Cent= 0 ISCF1= 0.
 ***** Axes restored to original set *****
 -------------------------------------------------------------------
 Center     Atomic                   Forces (Hartrees/Bohr)
 Number     Number              X              Y              Z
 -------------------------------------------------------------------
    1          6           0.001145779    0.000000000   -0.001593855
    2          6           0.001145779    0.000000000    0.001593855
    3          9           0.000383442    0.000000000   -0.002282372
    4          1          -0.000764610    0.000289171   -0.001216414
    5          1          -0.000764610   -0.000289171   -0.001216414
    6          9           0.000383442    0.000000000    0.002282372
    7          1          -0.000764610   -0.000289171    0.001216414
    8          1          -0.000764610    0.000289171    0.001216414
 -------------------------------------------------------------------
 Cartesian Forces:  Max     0.002282372 RMS     0.001060867

 GradGradGradGradGradGradGradGradGradGradGradGradGradGradGradGradGradGrad
 Berny optimization.
 Internal  Forces:  Max     0.003464664 RMS     0.001503112
 Search for a local minimum.
 Step number   2 out of a maximum of  38
 All quantities printed in internal units (Hartrees-Bohrs-Radians)
 Update second derivatives using D2CorX and points  1  2
 Trust test= 6.64D-01 RLast= 8.51D-02 DXMaxT set to 3.00D-01
     Eigenvalues ---    0.00255   0.05493   0.05493   0.05697   0.05715
     Eigenvalues ---    0.16000   0.16000   0.16000   0.17352   0.22270
     Eigenvalues ---    0.24185   0.30901   0.32122   0.32122   0.32122
     Eigenvalues ---    0.34535   0.45030   0.465241000.000001000.00000
     Eigenvalues --- 1000.000001000.000001000.000001000.000001000.00000
     Eigenvalues --- 1000.000001000.000001000.00000
 RFO step:  Lambda=-7.83720262D-05.
 Quartic linear search produced a step of -0.24639.
 Iteration  1 RMS(Cart)=  0.00988146 RMS(Int)=  0.00004458
 Iteration  2 RMS(Cart)=  0.00004352 RMS(Int)=  0.00001214
 Iteration  3 RMS(Cart)=  0.00000000 RMS(Int)=  0.00001214
 Variable       Old X    -DE/DX   Delta X   Delta X   Delta X     New X
                                 (Linear)    (Quad)   (Total)
    R1        2.94969  -0.00312  -0.01039   0.00386  -0.00652   2.94316
    R2        2.62121  -0.00044   0.00351  -0.00482  -0.00131   2.61990
    R3        2.09068   0.00015   0.00383  -0.00410  -0.00028   2.09041
    R4        2.09068   0.00015   0.00383  -0.00410  -0.00028   2.09041
    R5        2.62121  -0.00044   0.00351  -0.00482  -0.00131   2.61990
    R6        2.09068   0.00015   0.00383  -0.00410  -0.00028   2.09041
    R7        2.09068   0.00015   0.00383  -0.00410  -0.00028   2.09041
    A1        1.92854  -0.00346  -0.00411  -0.00641  -0.01051   1.91803
    A2        1.94029  -0.00103  -0.00464  -0.00071  -0.00533   1.93496
    A3        1.94029  -0.00103  -0.00464  -0.00071  -0.00533   1.93496
    A4        1.88521   0.00236   0.00477   0.00455   0.00933   1.89454
    A5        1.88521   0.00236   0.00477   0.00455   0.00933   1.89454
    A6        1.88219   0.00110   0.00431  -0.00082   0.00351   1.88570
    A7        1.92854  -0.00346  -0.00411  -0.00641  -0.01051   1.91803
    A8        1.94029  -0.00103  -0.00464  -0.00071  -0.00533   1.93496
    A9        1.94029  -0.00103  -0.00464  -0.00071  -0.00533   1.93496
   A10        1.88521   0.00236   0.00477   0.00455   0.00933   1.89454
   A11        1.88521   0.00236   0.00477   0.00455   0.00933   1.89454
   A12        1.88219   0.00110   0.00431  -0.00082   0.00351   1.88570
    D1        0.00000   0.00000   0.00000   0.00000   0.00000   0.00000
    D2        2.09305   0.00000   0.00033   0.00100   0.00134   2.09439
    D3       -2.09305   0.00000  -0.00033  -0.00100  -0.00134  -2.09439
    D4        2.09305   0.00000   0.00033   0.00100   0.00134   2.09439
    D5       -2.09708   0.00000   0.00066   0.00200   0.00268  -2.09441
    D6        0.00000   0.00000   0.00000   0.00000   0.00000   0.00000
    D7       -2.09305   0.00000  -0.00033  -0.00100  -0.00134  -2.09439
    D8        0.00000   0.00000   0.00000   0.00000   0.00000   0.00000
    D9        2.09708   0.00000  -0.00066  -0.00200  -0.00268   2.09441
         Item               Value     Threshold  Converged?
 Maximum Force            0.003465     0.000450     NO 
 RMS     Force            0.001503     0.000300     NO 
 Maximum Displacement     0.029569     0.001800     NO 
 RMS     Displacement     0.009906     0.001200     NO 
 Predicted change in Energy=-1.041079D-04
 GradGradGradGradGradGradGradGradGradGradGradGradGradGradGradGradGradGrad

                          Input orientation:                          
 ---------------------------------------------------------------------
 Center     Atomic     Atomic              Coordinates (Angstroms)
 Number     Number      Type              X           Y           Z
 ---------------------------------------------------------------------
    1          6             0       -0.000612    0.000000   -0.009427
    2          6             0       -0.000612    0.000000    1.548027
    3          9             0        1.303036    0.000000    2.019816
    4          1             0       -0.517434    0.895173    1.942017
    5          1             0       -0.517434   -0.895173    1.942017
    6          9             0        1.303036    0.000000   -0.481216
    7          1             0       -0.517434   -0.895173   -0.403417
    8          1             0       -0.517434    0.895173   -0.403417
 ---------------------------------------------------------------------
                    Distance matrix (angstroms):
                    1          2          3          4          5
     1  C    0.000000
     2  C    1.557454   0.000000
     3  F    2.411913   1.386392   0.000000
     4  H    2.208296   1.106195   2.030147   0.000000
     5  H    2.208296   1.106195   2.030147   1.790346   0.000000
     6  F    1.386392   2.411913   2.501031   3.160301   3.160301
     7  H    1.106195   2.208296   3.160301   2.950661   2.345434
     8  H    1.106195   2.208296   3.160301   2.345434   2.950661
                    6          7          8
     6  F    0.000000
     7  H    2.030147   0.000000
     8  H    2.030147   1.790346   0.000000
 Stoichiometry    C2H4F2
 Framework group  C2V[SGV(C2F2),X(H4)]
 Deg. of freedom     6
 Full point group                 C2V
 Largest Abelian subgroup         C2V     NOp   4
 Largest concise Abelian subgroup C2V     NOp   4
                         Standard orientation:                         
 ---------------------------------------------------------------------
 Center     Atomic     Atomic              Coordinates (Angstroms)
 Number     Number      Type              X           Y           Z
 ---------------------------------------------------------------------
    1          6             0        0.000000    0.778727    0.629364
    2          6             0        0.000000   -0.778727    0.629364
    3          9             0        0.000000   -1.250516   -0.674284
    4          1             0        0.895173   -1.172717    1.146185
    5          1             0       -0.895173   -1.172717    1.146185
    6          9             0        0.000000    1.250516   -0.674284
    7          1             0       -0.895173    1.172717    1.146185
    8          1             0        0.895173    1.172717    1.146185
 ---------------------------------------------------------------------
 Rotational constants (GHZ):     14.5298619      6.1074835      4.5501457
 Standard basis: 6-31G(d) (6D, 7F)
 There are    24 symmetry adapted basis functions of A1  symmetry.
 There are    10 symmetry adapted basis functions of A2  symmetry.
 There are    10 symmetry adapted basis functions of B1  symmetry.
 There are    24 symmetry adapted basis functions of B2  symmetry.
 Integral buffers will be    131072 words long.
 Raffenetti 2 integral format.
 Two-electron integral symmetry is turned on.
    68 basis functions,   128 primitive gaussians,    68 cartesian basis functions
    17 alpha electrons       17 beta electrons
       nuclear repulsion energy       128.3333429670 Hartrees.
 NAtoms=    8 NActive=    8 NUniq=    3 SFac= 3.00D+00 NAtFMM=   80 NAOKFM=F Big=F
 One-electron integrals computed using PRISM.
 NBasis=    68 RedAO= T  NBF=    24    10    10    24
 NBsUse=    68 1.00D-06 NBFU=    24    10    10    24
 Initial guess read from the read-write file:
 Initial guess orbital symmetries:
       Occupied  (B2) (A1) (A1) (B2) (A1) (B2) (A1) (B2) (B1) (A1)
                 (A1) (B2) (A2) (B2) (B1) (A1) (A2)
       Virtual   (A1) (A1) (B1) (B2) (B2) (A2) (B2) (A1) (B1) (B2)
                 (A1) (B2) (A1) (A2) (B1) (A2) (A1) (B2) (B2) (A1)
                 (A1) (B1) (B2) (A2) (A1) (B2) (B1) (B2) (A1) (A1)
                 (A2) (B1) (A2) (A1) (B2) (A1) (B2) (B1) (B2) (A1)
                 (B1) (A2) (B2) (A2) (B2) (A1) (B2) (A1) (A1) (B2)
                 (B2)
 Harris functional with IExCor= 1009 diagonalized for initial guess.
 ExpMin= 1.61D-01 ExpMax= 7.00D+03 ExpMxC= 1.05D+03 IAcc=1 IRadAn=         1 AccDes= 1.00D-06
 HarFok:  IExCor=1009 AccDes= 1.00D-06 IRadAn=         1 IDoV=1
 ScaDFX=  1.000000  1.000000  1.000000  1.000000
 Requested convergence on RMS density matrix=1.00D-08 within 128 cycles.
 Requested convergence on MAX density matrix=1.00D-06.
 Requested convergence on             energy=1.00D-06.
 No special actions if energy rises.
 Keep R1 integrals in memory in canonical form, NReq=     4561737.
 Integral accuracy reduced to 1.0D-05 until final iterations.
 Initial convergence to 1.0D-05 achieved.  Increase integral accuracy.
 SCF Done:  E(RPBE-PBE) =  -277.964416472     A.U. after    9 cycles
             Convg  =    0.4032D-08             -V/T =  2.0073
             S**2   =   0.0000
 Calling FoFCou, ICntrl=  2527 FMM=F ISym2X=1 I1Cent= 0 ISCF1= 0.
 ***** Axes restored to original set *****
 -------------------------------------------------------------------
 Center     Atomic                   Forces (Hartrees/Bohr)
 Number     Number              X              Y              Z
 -------------------------------------------------------------------
    1          6           0.000783199    0.000000000   -0.000786191
    2          6           0.000783199    0.000000000    0.000786191
    3          9          -0.000466594    0.000000000   -0.000230007
    4          1          -0.000158302    0.000199252   -0.000040320
    5          1          -0.000158302   -0.000199252   -0.000040320
    6          9          -0.000466594    0.000000000    0.000230007
    7          1          -0.000158302   -0.000199252    0.000040320
    8          1          -0.000158302    0.000199252    0.000040320
 -------------------------------------------------------------------
 Cartesian Forces:  Max     0.000786191 RMS     0.000369107

 GradGradGradGradGradGradGradGradGradGradGradGradGradGradGradGradGradGrad
 Berny optimization.
 Internal  Forces:  Max     0.000517017 RMS     0.000200922
 Search for a local minimum.
 Step number   3 out of a maximum of  38
 All quantities printed in internal units (Hartrees-Bohrs-Radians)
 Update second derivatives using D2CorX and points  1  2  3
 Trust test= 1.06D+00 RLast= 2.78D-02 DXMaxT set to 3.00D-01
     Eigenvalues ---    0.00255   0.05576   0.05576   0.05722   0.05760
     Eigenvalues ---    0.16000   0.16000   0.16000   0.16619   0.22308
     Eigenvalues ---    0.22963   0.31499   0.32122   0.32122   0.32122
     Eigenvalues ---    0.35397   0.44651   0.465241000.000001000.00000
     Eigenvalues --- 1000.000001000.000001000.000001000.000001000.00000
     Eigenvalues --- 1000.000001000.000001000.00000
 RFO step:  Lambda=-3.80470445D-06.
 Quartic linear search produced a step of  0.03452.
 Iteration  1 RMS(Cart)=  0.00060561 RMS(Int)=  0.00000106
 Iteration  2 RMS(Cart)=  0.00000085 RMS(Int)=  0.00000082
 Variable       Old X    -DE/DX   Delta X   Delta X   Delta X     New X
                                 (Linear)    (Quad)   (Total)
    R1        2.94316   0.00048  -0.00023   0.00209   0.00186   2.94502
    R2        2.61990  -0.00052  -0.00005  -0.00124  -0.00128   2.61862
    R3        2.09041   0.00022  -0.00001   0.00062   0.00061   2.09102
    R4        2.09041   0.00022  -0.00001   0.00062   0.00061   2.09102
    R5        2.61990  -0.00052  -0.00005  -0.00124  -0.00128   2.61862
    R6        2.09041   0.00022  -0.00001   0.00062   0.00061   2.09102
    R7        2.09041   0.00022  -0.00001   0.00062   0.00061   2.09102
    A1        1.91803  -0.00003  -0.00036   0.00024  -0.00012   1.91791
    A2        1.93496  -0.00015  -0.00018  -0.00088  -0.00106   1.93390
    A3        1.93496  -0.00015  -0.00018  -0.00088  -0.00106   1.93390
    A4        1.89454   0.00011   0.00032   0.00068   0.00100   1.89554
    A5        1.89454   0.00011   0.00032   0.00068   0.00100   1.89554
    A6        1.88570   0.00012   0.00012   0.00022   0.00034   1.88604
    A7        1.91803  -0.00003  -0.00036   0.00024  -0.00012   1.91791
    A8        1.93496  -0.00015  -0.00018  -0.00088  -0.00106   1.93390
    A9        1.93496  -0.00015  -0.00018  -0.00088  -0.00106   1.93390
   A10        1.89454   0.00011   0.00032   0.00068   0.00100   1.89554
   A11        1.89454   0.00011   0.00032   0.00068   0.00100   1.89554
   A12        1.88570   0.00012   0.00012   0.00022   0.00034   1.88604
    D1        0.00000   0.00000   0.00000   0.00000   0.00000   0.00000
    D2        2.09439   0.00002   0.00005   0.00044   0.00049   2.09488
    D3       -2.09439  -0.00002  -0.00005  -0.00044  -0.00049  -2.09488
    D4        2.09439   0.00002   0.00005   0.00044   0.00049   2.09488
    D5       -2.09441   0.00005   0.00009   0.00089   0.00098  -2.09343
    D6        0.00000   0.00000   0.00000   0.00000   0.00000   0.00000
    D7       -2.09439  -0.00002  -0.00005  -0.00044  -0.00049  -2.09488
    D8        0.00000   0.00000   0.00000   0.00000   0.00000   0.00000
    D9        2.09441  -0.00005  -0.00009  -0.00089  -0.00098   2.09343
         Item               Value     Threshold  Converged?
 Maximum Force            0.000517     0.000450     NO 
 RMS     Force            0.000201     0.000300     YES
 Maximum Displacement     0.001028     0.001800     YES
 RMS     Displacement     0.000606     0.001200     YES
 Predicted change in Energy=-2.040901D-06
 GradGradGradGradGradGradGradGradGradGradGradGradGradGradGradGradGradGrad

                          Input orientation:                          
 ---------------------------------------------------------------------
 Center     Atomic     Atomic              Coordinates (Angstroms)
 Number     Number      Type              X           Y           Z
 ---------------------------------------------------------------------
    1          6             0       -0.000068    0.000000   -0.009920
    2          6             0       -0.000068    0.000000    1.548520
    3          9             0        1.303001    0.000000    2.019916
    4          1             0       -0.517689    0.895546    1.941527
    5          1             0       -0.517689   -0.895546    1.941527
    6          9             0        1.303001    0.000000   -0.481316
    7          1             0       -0.517689   -0.895546   -0.402927
    8          1             0       -0.517689    0.895546   -0.402927
 ---------------------------------------------------------------------
                    Distance matrix (angstroms):
                    1          2          3          4          5
     1  C    0.000000
     2  C    1.558440   0.000000
     3  F    2.412099   1.385714   0.000000
     4  H    2.208637   1.106520   2.030531   0.000000
     5  H    2.208637   1.106520   2.030531   1.791091   0.000000
     6  F    1.385714   2.412099   2.501232   3.160234   3.160234
     7  H    1.106520   2.208637   3.160234   2.950334   2.344453
     8  H    1.106520   2.208637   3.160234   2.344453   2.950334
                    6          7          8
     6  F    0.000000
     7  H    2.030531   0.000000
     8  H    2.030531   1.791091   0.000000
 Stoichiometry    C2H4F2
 Framework group  C2V[SGV(C2F2),X(H4)]
 Deg. of freedom     6
 Full point group                 C2V
 Largest Abelian subgroup         C2V     NOp   4
 Largest concise Abelian subgroup C2V     NOp   4
                         Standard orientation:                         
 ---------------------------------------------------------------------
 Center     Atomic     Atomic              Coordinates (Angstroms)
 Number     Number      Type              X           Y           Z
 ---------------------------------------------------------------------
    1          6             0        0.000000    0.779220    0.628963
    2          6             0        0.000000   -0.779220    0.628963
    3          9             0        0.000000   -1.250616   -0.674105
    4          1             0        0.895546   -1.172227    1.146584
    5          1             0       -0.895546   -1.172227    1.146584
    6          9             0        0.000000    1.250616   -0.674105
    7          1             0       -0.895546    1.172227    1.146584
    8          1             0        0.895546    1.172227    1.146584
 ---------------------------------------------------------------------
 Rotational constants (GHZ):     14.5361588      6.1055632      4.5499172
 Standard basis: 6-31G(d) (6D, 7F)
 There are    24 symmetry adapted basis functions of A1  symmetry.
 There are    10 symmetry adapted basis functions of A2  symmetry.
 There are    10 symmetry adapted basis functions of B1  symmetry.
 There are    24 symmetry adapted basis functions of B2  symmetry.
 Integral buffers will be    131072 words long.
 Raffenetti 2 integral format.
 Two-electron integral symmetry is turned on.
    68 basis functions,   128 primitive gaussians,    68 cartesian basis functions
    17 alpha electrons       17 beta electrons
       nuclear repulsion energy       128.3366247017 Hartrees.
 NAtoms=    8 NActive=    8 NUniq=    3 SFac= 3.00D+00 NAtFMM=   80 NAOKFM=F Big=F
 One-electron integrals computed using PRISM.
 NBasis=    68 RedAO= T  NBF=    24    10    10    24
 NBsUse=    68 1.00D-06 NBFU=    24    10    10    24
 Initial guess read from the read-write file:
 Initial guess orbital symmetries:
       Occupied  (A1) (B2) (A1) (B2) (A1) (B2) (A1) (B2) (B1) (A1)
                 (A1) (B2) (A2) (B2) (B1) (A1) (A2)
       Virtual   (A1) (A1) (B1) (B2) (B2) (A2) (B2) (A1) (B1) (B2)
                 (A1) (B2) (A1) (A2) (B1) (A2) (A1) (B2) (A1) (B2)
                 (A1) (B1) (B2) (A1) (A2) (B2) (B1) (B2) (A1) (A1)
                 (A2) (B1) (A2) (A1) (B2) (A1) (B2) (B1) (B2) (A1)
                 (B1) (A2) (B2) (A2) (B2) (A1) (B2) (A1) (A1) (B2)
                 (B2)
 Requested convergence on RMS density matrix=1.00D-08 within 128 cycles.
 Requested convergence on MAX density matrix=1.00D-06.
 Requested convergence on             energy=1.00D-06.
 No special actions if energy rises.
 Keep R1 integrals in memory in canonical form, NReq=     4561737.
 SCF Done:  E(RPBE-PBE) =  -277.964419079     A.U. after    7 cycles
             Convg  =    0.2377D-08             -V/T =  2.0073
             S**2   =   0.0000
 Calling FoFCou, ICntrl=  2527 FMM=F ISym2X=1 I1Cent= 0 ISCF1= 0.
 ***** Axes restored to original set *****
 -------------------------------------------------------------------
 Center     Atomic                   Forces (Hartrees/Bohr)
 Number     Number              X              Y              Z
 -------------------------------------------------------------------
    1          6           0.000245800    0.000000000   -0.000262238
    2          6           0.000245800    0.000000000    0.000262238
    3          9          -0.000193465    0.000000000   -0.000068454
    4          1          -0.000026167    0.000029542   -0.000005621
    5          1          -0.000026167   -0.000029542   -0.000005621
    6          9          -0.000193465    0.000000000    0.000068454
    7          1          -0.000026167   -0.000029542    0.000005621
    8          1          -0.000026167    0.000029542    0.000005621
 -------------------------------------------------------------------
 Cartesian Forces:  Max     0.000262238 RMS     0.000120582

 GradGradGradGradGradGradGradGradGradGradGradGradGradGradGradGradGradGrad
 Berny optimization.
 Internal  Forces:  Max     0.000205214 RMS     0.000067297
 Search for a local minimum.
 Step number   4 out of a maximum of  38
 All quantities printed in internal units (Hartrees-Bohrs-Radians)
 Update second derivatives using D2CorX and points  1  2  3  4
 Trust test= 1.28D+00 RLast= 4.46D-03 DXMaxT set to 3.00D-01
     Eigenvalues ---    0.00255   0.05580   0.05580   0.05603   0.05772
     Eigenvalues ---    0.15189   0.16000   0.16000   0.16000   0.21622
     Eigenvalues ---    0.22313   0.31661   0.32122   0.32122   0.32122
     Eigenvalues ---    0.34890   0.39555   0.465241000.000001000.00000
     Eigenvalues --- 1000.000001000.000001000.000001000.000001000.00000
     Eigenvalues --- 1000.000001000.000001000.00000
 RFO step:  Lambda=-9.55334800D-08.
 Quartic linear search produced a step of  0.39317.
 Iteration  1 RMS(Cart)=  0.00020640 RMS(Int)=  0.00000021
 Iteration  2 RMS(Cart)=  0.00000007 RMS(Int)=  0.00000020
 Variable       Old X    -DE/DX   Delta X   Delta X   Delta X     New X
                                 (Linear)    (Quad)   (Total)
    R1        2.94502   0.00018   0.00073   0.00022   0.00095   2.94598
    R2        2.61862  -0.00021  -0.00050  -0.00021  -0.00072   2.61790
    R3        2.09102   0.00003   0.00024  -0.00012   0.00012   2.09114
    R4        2.09102   0.00003   0.00024  -0.00012   0.00012   2.09114
    R5        2.61862  -0.00021  -0.00050  -0.00021  -0.00072   2.61790
    R6        2.09102   0.00003   0.00024  -0.00012   0.00012   2.09114
    R7        2.09102   0.00003   0.00024  -0.00012   0.00012   2.09114
    A1        1.91791   0.00001  -0.00005   0.00006   0.00001   1.91791
    A2        1.93390  -0.00003  -0.00042   0.00010  -0.00032   1.93358
    A3        1.93390  -0.00003  -0.00042   0.00010  -0.00032   1.93358
    A4        1.89554   0.00001   0.00039  -0.00009   0.00031   1.89585
    A5        1.89554   0.00001   0.00039  -0.00009   0.00031   1.89585
    A6        1.88604   0.00002   0.00013  -0.00009   0.00004   1.88608
    A7        1.91791   0.00001  -0.00005   0.00006   0.00001   1.91791
    A8        1.93390  -0.00003  -0.00042   0.00010  -0.00032   1.93358
    A9        1.93390  -0.00003  -0.00042   0.00010  -0.00032   1.93358
   A10        1.89554   0.00001   0.00039  -0.00009   0.00031   1.89585
   A11        1.89554   0.00001   0.00039  -0.00009   0.00031   1.89585
   A12        1.88604   0.00002   0.00013  -0.00009   0.00004   1.88608
    D1        0.00000   0.00000   0.00000   0.00000   0.00000   0.00000
    D2        2.09488   0.00001   0.00019  -0.00001   0.00018   2.09506
    D3       -2.09488  -0.00001  -0.00019   0.00001  -0.00018  -2.09506
    D4        2.09488   0.00001   0.00019  -0.00001   0.00018   2.09506
    D5       -2.09343   0.00001   0.00038  -0.00002   0.00037  -2.09306
    D6        0.00000   0.00000   0.00000   0.00000   0.00000   0.00000
    D7       -2.09488  -0.00001  -0.00019   0.00001  -0.00018  -2.09506
    D8        0.00000   0.00000   0.00000   0.00000   0.00000   0.00000
    D9        2.09343  -0.00001  -0.00038   0.00002  -0.00037   2.09306
         Item               Value     Threshold  Converged?
 Maximum Force            0.000205     0.000450     YES
 RMS     Force            0.000067     0.000300     YES
 Maximum Displacement     0.000477     0.001800     YES
 RMS     Displacement     0.000206     0.001200     YES
 Predicted change in Energy=-2.735604D-07
 Optimization completed.
    -- Stationary point found.
                           ----------------------------
                           !   Optimized Parameters   !
                           ! (Angstroms and Degrees)  !
 --------------------------                            --------------------------
 ! Name  Definition              Value          Derivative Info.                !
 --------------------------------------------------------------------------------
 ! R1    R(1,2)                  1.5584         -DE/DX =    0.0002              !
 ! R2    R(1,6)                  1.3857         -DE/DX =   -0.0002              !
 ! R3    R(1,7)                  1.1065         -DE/DX =    0.0                 !
 ! R4    R(1,8)                  1.1065         -DE/DX =    0.0                 !
 ! R5    R(2,3)                  1.3857         -DE/DX =   -0.0002              !
 ! R6    R(2,4)                  1.1065         -DE/DX =    0.0                 !
 ! R7    R(2,5)                  1.1065         -DE/DX =    0.0                 !
 ! A1    A(2,1,6)              109.888          -DE/DX =    0.0                 !
 ! A2    A(2,1,7)              110.8041         -DE/DX =    0.0                 !
 ! A3    A(2,1,8)              110.8041         -DE/DX =    0.0                 !
 ! A4    A(6,1,7)              108.6066         -DE/DX =    0.0                 !
 ! A5    A(6,1,8)              108.6066         -DE/DX =    0.0                 !
 ! A6    A(7,1,8)              108.062          -DE/DX =    0.0                 !
 ! A7    A(1,2,3)              109.888          -DE/DX =    0.0                 !
 ! A8    A(1,2,4)              110.8041         -DE/DX =    0.0                 !
 ! A9    A(1,2,5)              110.8041         -DE/DX =    0.0                 !
 ! A10   A(3,2,4)              108.6066         -DE/DX =    0.0                 !
 ! A11   A(3,2,5)              108.6066         -DE/DX =    0.0                 !
 ! A12   A(4,2,5)              108.062          -DE/DX =    0.0                 !
 ! D1    D(6,1,2,3)              0.0            -DE/DX =    0.0                 !
 ! D2    D(6,1,2,4)            120.0277         -DE/DX =    0.0                 !
 ! D3    D(6,1,2,5)           -120.0277         -DE/DX =    0.0                 !
 ! D4    D(7,1,2,3)            120.0277         -DE/DX =    0.0                 !
 ! D5    D(7,1,2,4)           -119.9446         -DE/DX =    0.0                 !
 ! D6    D(7,1,2,5)              0.0            -DE/DX =    0.0                 !
 ! D7    D(8,1,2,3)           -120.0277         -DE/DX =    0.0                 !
 ! D8    D(8,1,2,4)              0.0            -DE/DX =    0.0                 !
 ! D9    D(8,1,2,5)            119.9446         -DE/DX =    0.0                 !
 --------------------------------------------------------------------------------
 GradGradGradGradGradGradGradGradGradGradGradGradGradGradGradGradGradGrad

                          Input orientation:                          
 ---------------------------------------------------------------------
 Center     Atomic     Atomic              Coordinates (Angstroms)
 Number     Number      Type              X           Y           Z
 ---------------------------------------------------------------------
    1          6             0       -0.000068    0.000000   -0.009920
    2          6             0       -0.000068    0.000000    1.548520
    3          9             0        1.303001    0.000000    2.019916
    4          1             0       -0.517689    0.895546    1.941527
    5          1             0       -0.517689   -0.895546    1.941527
    6          9             0        1.303001    0.000000   -0.481316
    7          1             0       -0.517689   -0.895546   -0.402927
    8          1             0       -0.517689    0.895546   -0.402927
 ---------------------------------------------------------------------
                    Distance matrix (angstroms):
                    1          2          3          4          5
     1  C    0.000000
     2  C    1.558440   0.000000
     3  F    2.412099   1.385714   0.000000
     4  H    2.208637   1.106520   2.030531   0.000000
     5  H    2.208637   1.106520   2.030531   1.791091   0.000000
     6  F    1.385714   2.412099   2.501232   3.160234   3.160234
     7  H    1.106520   2.208637   3.160234   2.950334   2.344453
     8  H    1.106520   2.208637   3.160234   2.344453   2.950334
                    6          7          8
     6  F    0.000000
     7  H    2.030531   0.000000
     8  H    2.030531   1.791091   0.000000
 Stoichiometry    C2H4F2
 Framework group  C2V[SGV(C2F2),X(H4)]
 Deg. of freedom     6
 Full point group                 C2V
 Largest Abelian subgroup         C2V     NOp   4
 Largest concise Abelian subgroup C2V     NOp   4
                         Standard orientation:                         
 ---------------------------------------------------------------------
 Center     Atomic     Atomic              Coordinates (Angstroms)
 Number     Number      Type              X           Y           Z
 ---------------------------------------------------------------------
    1          6             0        0.000000    0.779220    0.628963
    2          6             0        0.000000   -0.779220    0.628963
    3          9             0        0.000000   -1.250616   -0.674105
    4          1             0        0.895546   -1.172227    1.146584
    5          1             0       -0.895546   -1.172227    1.146584
    6          9             0        0.000000    1.250616   -0.674105
    7          1             0       -0.895546    1.172227    1.146584
    8          1             0        0.895546    1.172227    1.146584
 ---------------------------------------------------------------------
 Rotational constants (GHZ):     14.5361588      6.1055632      4.5499172

 **********************************************************************

            Population analysis using the SCF density.

 **********************************************************************

 Orbital symmetries:
       Occupied  (A1) (B2) (A1) (B2) (A1) (B2) (A1) (B2) (B1) (A1)
                 (A1) (B2) (A2) (B2) (B1) (A1) (A2)
       Virtual   (A1) (A1) (B1) (B2) (B2) (A2) (B2) (A1) (B1) (B2)
                 (A1) (B2) (A1) (A2) (B1) (A2) (A1) (B2) (A1) (B2)
                 (A1) (B1) (B2) (A1) (A2) (B2) (B1) (B2) (A1) (A1)
                 (A2) (B1) (A2) (A1) (B2) (A1) (B2) (B1) (B2) (A1)
                 (B1) (A2) (B2) (A2) (B2) (A1) (B2) (A1) (A1) (B2)
                 (B2)
 The electronic state is 1-A1.
 Alpha  occ. eigenvalues --  -24.24992 -24.24992  -9.97620  -9.97612  -1.08591
 Alpha  occ. eigenvalues --   -1.06873  -0.68284  -0.56580  -0.45330  -0.45134
 Alpha  occ. eigenvalues --   -0.42605  -0.40540  -0.38728  -0.30357  -0.29000
 Alpha  occ. eigenvalues --   -0.26734  -0.26064
 Alpha virt. eigenvalues --    0.02593   0.07517   0.08545   0.12129   0.16439
 Alpha virt. eigenvalues --    0.18423   0.20086   0.46499   0.50506   0.51637
 Alpha virt. eigenvalues --    0.52239   0.54927   0.72389   0.74150   0.76180
 Alpha virt. eigenvalues --    0.79616   0.83353   0.84815   1.05565   1.05807
 Alpha virt. eigenvalues --    1.08813   1.12962   1.28334   1.35219   1.35362
 Alpha virt. eigenvalues --    1.37239   1.37842   1.62754   1.65379   1.70132
 Alpha virt. eigenvalues --    1.74127   1.76131   1.77385   1.82212   1.84579
 Alpha virt. eigenvalues --    1.97549   1.97700   1.99809   2.08814   2.20990
 Alpha virt. eigenvalues --    2.27592   2.27924   2.38210   2.40157   2.65119
 Alpha virt. eigenvalues --    2.86997   2.95824   3.80925   4.06836   4.33697
 Alpha virt. eigenvalues --    4.42820
          Condensed to atoms (all electrons):
              1          2          3          4          5          6
     1  C    4.910386   0.272552  -0.039363  -0.042183  -0.042183   0.274684
     2  C    0.272552   4.910386   0.274684   0.348432   0.348432  -0.039363
     3  F   -0.039363   0.274684   9.089400  -0.032484  -0.032484   0.002448
     4  H   -0.042183   0.348432  -0.032484   0.632078  -0.054212   0.001398
     5  H   -0.042183   0.348432  -0.032484  -0.054212   0.632078   0.001398
     6  F    0.274684  -0.039363   0.002448   0.001398   0.001398   9.089400
     7  H    0.348432  -0.042183   0.001398   0.005665  -0.006568  -0.032484
     8  H    0.348432  -0.042183   0.001398  -0.006568   0.005665  -0.032484
              7          8
     1  C    0.348432   0.348432
     2  C   -0.042183  -0.042183
     3  F    0.001398   0.001398
     4  H    0.005665  -0.006568
     5  H   -0.006568   0.005665
     6  F   -0.032484  -0.032484
     7  H    0.632078  -0.054212
     8  H   -0.054212   0.632078
 Mulliken atomic charges:
              1
     1  C   -0.030756
     2  C   -0.030756
     3  F   -0.264996
     4  H    0.147876
     5  H    0.147876
     6  F   -0.264996
     7  H    0.147876
     8  H    0.147876
 Sum of Mulliken charges=   0.00000
 Atomic charges with hydrogens summed into heavy atoms:
              1
     1  C    0.264996
     2  C    0.264996
     3  F   -0.264996
     4  H    0.000000
     5  H    0.000000
     6  F   -0.264996
     7  H    0.000000
     8  H    0.000000
 Sum of Mulliken charges=   0.00000
 Electronic spatial extent (au):  <R**2>=   272.7776
 Charge=     0.0000 electrons
 Dipole moment (field-independent basis, Debye):
    X=     0.0000    Y=     0.0000    Z=     2.6637  Tot=     2.6637
 Quadrupole moment (field-independent basis, Debye-Ang):
   XX=   -21.5625   YY=   -24.0063   ZZ=   -21.9490
   XY=     0.0000   XZ=     0.0000   YZ=     0.0000
 Traceless Quadrupole moment (field-independent basis, Debye-Ang):
   XX=     0.9434   YY=    -1.5003   ZZ=     0.5569
   XY=     0.0000   XZ=     0.0000   YZ=     0.0000
 Octapole moment (field-independent basis, Debye-Ang**2):
  XXX=     0.0000  YYY=     0.0000  ZZZ=    -9.3620  XYY=     0.0000
  XXY=     0.0000  XXZ=    -2.3131  XZZ=     0.0000  YZZ=     0.0000
  YYZ=    -0.2809  XYZ=     0.0000
 Hexadecapole moment (field-independent basis, Debye-Ang**3):
 XXXX=   -31.4390 YYYY=  -172.4644 ZZZZ=   -88.0646 XXXY=     0.0000
 XXXZ=     0.0000 YYYX=     0.0000 YYYZ=     0.0000 ZZZX=     0.0000
 ZZZY=     0.0000 XXYY=   -32.0325 XXZZ=   -18.9727 YYZZ=   -42.3955
 XXYZ=     0.0000 YYXZ=     0.0000 ZZXY=     0.0000
 N-N= 1.283366247017D+02 E-N=-9.148456156997D+02  KE= 2.759507142794D+02
 Symmetry A1   KE= 1.303075709548D+02
 Symmetry A2   KE= 8.681413180398D+00
 Symmetry B1   KE= 8.197228451123D+00
 Symmetry B2   KE= 1.287645016931D+02
 Final structure in terms of initial Z-matrix:
 C
 C,1,r1
 F,2,r2,1,A1
 H,2,r3,1,A2,3,D1,0
 H,2,r3,1,A2,3,D2,0
 F,1,r2,2,A1,3,D3,0
 H,1,r3,2,A2,6,D1,0
 H,1,r3,2,A2,6,D2,0
      Variables:
 r1=1.55843983
 r2=1.38571383
 r3=1.10652049
 D1=120.02769053
 D2=-120.02769053
 A1=109.88801376
 D3=0.
 A2=110.80407587
 1\1\GINC-DCOPT280\FOpt\RPBEPBE\6-31G(d)\C2H4F2\WSCHNEI1\29-Oct-2007\0\
 \#N PBEPBE/6-31G(d) opt\\e-C2H4F2 G2\\0,1\C,-0.0000677973,0.,-0.009919
 9133\C,-0.0000677973,0.,1.5485199133\F,1.3030011112,0.,2.0199159735\H,
 -0.5176885708,0.8955456698,1.9415266259\H,-0.5176885708,-0.8955456698,
 1.9415266259\F,1.3030011112,0.,-0.4813159735\H,-0.5176885708,-0.895545
 6698,-0.4029266259\H,-0.5176885708,0.8955456698,-0.4029266259\\Version
 =AM64L-G03RevD.01\State=1-A1\HF=-277.9644191\RMSD=2.377e-09\RMSF=1.206
 e-04\Thermal=0.\Dipole=-1.0479885,0.,0.\PG=C02V [SGV(C2F2),X(H4)]\\@


 HIGGLEDY-PIGGLEDY
 NIC'LAUS COPERNICUS
 LOOKED AT THE UNIVERSE,
 SPOKE TO THE THRONG;
 GIVE UP YOUR PTOLOMY,
 RISE UP AND FOLLOW ME,
 HELIOCENTRICALLY
 PTOLEMY'S WRONG.
   -- NANCY L. STARK
 Job cpu time:  0 days  0 hours  0 minutes  6.2 seconds.
 File lengths (MBytes):  RWF=     18 Int=      0 D2E=      0 Chk=     14 Scr=      1
 Normal termination of Gaussian 03 at Mon Oct 29 18:11:17 2007.
