----- GAMESS execution script 'rungms' -----
This job is running on host dftfe.crc.nd.edu
under operating system Linux at Thu Feb 26 00:14:22 EST 2015
Available scratch disk space (Kbyte units) at beginning of the job is
Filesystem     1K-blocks     Used Available Use% Mounted on
/dev/sda2      147771864 22811496 117453936  17% /
GAMESS temporary binary files will be written to /tmp
GAMESS supplementary output files will be written to /tmp
Copying input file gamess.inp to your run's scratch directory...

 Distributed Data Interface kickoff program.
 Initiating 1 compute processes on 1 nodes to run the following command:
 /opt/crc/gamess/2012R1/gamess/gamess.00.x gamess 

          ******************************************************
          *         GAMESS VERSION =  1 MAY 2012 (R1)          *
          *             FROM IOWA STATE UNIVERSITY             *
          * M.W.SCHMIDT, K.K.BALDRIDGE, J.A.BOATZ, S.T.ELBERT, *
          *   M.S.GORDON, J.H.JENSEN, S.KOSEKI, N.MATSUNAGA,   *
          *          K.A.NGUYEN, S.J.SU, T.L.WINDUS,           *
          *       TOGETHER WITH M.DUPUIS, J.A.MONTGOMERY       *
          *         J.COMPUT.CHEM.  14, 1347-1363(1993)        *
          **************** 64 BIT LINUX VERSION ****************

  SINCE 1993, STUDENTS AND POSTDOCS WORKING AT IOWA STATE UNIVERSITY
  AND ALSO IN THEIR VARIOUS JOBS AFTER LEAVING ISU HAVE MADE IMPORTANT
  CONTRIBUTIONS TO THE CODE:
     IVANA ADAMOVIC, CHRISTINE AIKENS, YURI ALEXEEV, POOJA ARORA,
     ANDREY ASADCHEV, ROB BELL, PRADIPTA BANDYOPADHYAY, JONATHAN BENTZ,
     BRETT BODE, GALINA CHABAN, WEI CHEN, CHEOL HO CHOI, PAUL DAY,
     ALBERT DEFUSCO, TIM DUDLEY, DMITRI FEDOROV, GRAHAM FLETCHER,
     MARK FREITAG, KURT GLAESEMANN, DAN KEMP, GRANT MERRILL,
     NORIYUKI MINEZAWA, JONATHAN MULLIN, TAKESHI NAGATA,
     SEAN NEDD, HEATHER NETZLOFF, BOSILJKA NJEGIC, RYAN OLSON, MIKE PAK,
     JIM SHOEMAKER, LYUDMILA SLIPCHENKO, SAROM SOK, JIE SONG,
     TETSUYA TAKETSUGU, SIMON WEBB, SOOHAENG YOO, FEDERICO ZAHARIEV

  ADDITIONAL CODE HAS BEEN PROVIDED BY COLLABORATORS IN OTHER GROUPS:
     IOWA STATE UNIVERSITY:
          JOE IVANIC, LAIMUTIS BYTAUTAS, KLAUS RUEDENBERG
     UNIVERSITY OF TOKYO: KIMIHIKO HIRAO, TAKAHITO NAKAJIMA,
          TAKAO TSUNEDA, MUNEAKI KAMIYA, SUSUMU YANAGISAWA,
          KIYOSHI YAGI, MAHITO CHIBA, SEIKEN TOKURA, NAOAKI KAWAKAMI
     UNIVERSITY OF AARHUS: FRANK JENSEN
     UNIVERSITY OF IOWA: VISVALDAS KAIRYS, HUI LI
     NATIONAL INST. OF STANDARDS AND TECHNOLOGY: WALT STEVENS, DAVID GARMER
     UNIVERSITY OF PISA: BENEDETTA MENNUCCI, JACOPO TOMASI
     UNIVERSITY OF MEMPHIS: HENRY KURTZ, PRAKASHAN KORAMBATH
     UNIVERSITY OF ALBERTA: TOBY ZENG, MARIUSZ KLOBUKOWSKI
     UNIVERSITY OF NEW ENGLAND: MARK SPACKMAN
     MIE UNIVERSITY: HIROAKI UMEDA
     MICHIGAN STATE UNIVERSITY:
          KAROL KOWALSKI, MARTA WLOCH, JEFFREY GOUR, JESSE LUTZ, PIOTR PIECUCH
     UNIVERSITY OF SILESIA: MONIKA MUSIAL, STANISLAW KUCHARSKI
     FACULTES UNIVERSITAIRES NOTRE-DAME DE LA PAIX:
          OLIVIER QUINET, BENOIT CHAMPAGNE
     UNIVERSITY OF CALIFORNIA - SANTA BARBARA: BERNARD KIRTMAN
     INSTITUTE FOR MOLECULAR SCIENCE:
          KAZUYA ISHIMURA, MICHIO KATOUDA, AND SHIGERU NAGASE
     UNIVERSITY OF NOTRE DAME: DAN CHIPMAN
     KYUSHU UNIVERSITY:
          HARUYUKI NAKANO,
          FENG LONG GU, JACEK KORCHOWIEC, MARCIN MAKOWSKI, AND YURIKO AOKI,
          HIROTOSHI MORI AND EISAKU MIYOSHI
     PENNSYLVANIA STATE UNIVERSITY:
          TZVETELIN IORDANOV, CHET SWALINA, JONATHAN SKONE,
          SHARON HAMMES-SCHIFFER
     WASEDA UNIVERSITY:
          MASATO KOBAYASHI, TOMOKO AKAMA, TSUGUKI TOUMA,
          TAKESHI YOSHIKAWA, YASUHIRO IKABATA, HIROMI NAKAI
     UNIVERSITY OF NEBRASKA:
          PEIFENG SU, DEJUN SI, NANDUN THELLAMUREGE, YALI WANG, HUI LI
     UNIVERSITY OF ZURICH:
          ROBERTO PEVERATI, KIM BALDRIDGE
     N. COPERNICUS UNIVERSITY AND JACKSON STATE UNIVERSITY:
          MARIA BARYSZ

 EXECUTION OF GAMESS BEGUN Thu Feb 26 00:14:22 2015

            ECHO OF THE FIRST FEW INPUT CARDS -
 INPUT CARD> $BASIS GBASIS=PC1 $END                                                         
 INPUT CARD> $CONTRL COORD=ZMT ISPHER=1 RUNTYP=ENERGY DFTTYP=PBE $END                       
 INPUT CARD>                                                                                
 INPUT CARD> $DATA                                                                          
 INPUT CARD>Title                                                                           
 INPUT CARD>Cnv 2                                                                           
 INPUT CARD>                                                                                
 INPUT CARD>S                                                                               
 INPUT CARD>O 1 1.30                                                                        
 INPUT CARD>O 1 1.30 2 130.0                                                                
 INPUT CARD> $END                                                                           
    1000000 WORDS OF MEMORY AVAILABLE

     BASIS OPTIONS
     -------------
     GBASIS=PC1          IGAUSS=       0      POLAR=NONE    
     NDFUNC=       0     NFFUNC=       0     DIFFSP=       F
     NPFUNC=       0      DIFFS=       F     BASNAM=        


     RUN TITLE
     ---------
 Title                                                                           

 THE POINT GROUP OF THE MOLECULE IS CNV     
 THE ORDER OF THE PRINCIPAL AXIS IS     2

 YOUR FULLY SUBSTITUTED Z-MATRIX IS
 S   
 O      1   1.3000000
 O      1   1.3000000  2  130.0000

 THE MOMENTS OF INERTIA ARE (AMU-ANGSTROM**2)
 IXX=     4.827   IYY=    44.407   IZZ=    49.233

 ATOM      ATOMIC                      COORDINATES (BOHR)
           CHARGE         X                   Y                   Z
 S          16.0     0.0000000000        0.0000000000       -0.5192553209
 O           8.0    -2.2264753914        0.0000000000        0.5189672048
 O           8.0     2.2264753914        0.0000000000        0.5189672048

          INTERNUCLEAR DISTANCES (ANGS.)
          ------------------------------

                1 S          2 O          3 O     

   1 S       0.0000000    1.3000000 *  1.3000000 *
   2 O       1.3000000 *  0.0000000    2.3564002 *
   3 O       1.3000000 *  2.3564002 *  0.0000000  

  * ... LESS THAN  3.000


     ATOMIC BASIS SET
     ----------------
 THE CONTRACTED PRIMITIVE FUNCTIONS HAVE BEEN UNNORMALIZED
 THE CONTRACTED BASIS FUNCTIONS ARE NOW NORMALIZED TO UNITY

  SHELL TYPE  PRIMITIVE        EXPONENT          CONTRACTION COEFFICIENT(S)

 S         

      1   S       1         55510.0000000    0.000587229760
      1   S       2          8326.7000000    0.004532413947
      1   S       3          1895.6000000    0.023265261648
      1   S       4           536.7700000    0.089696133027
      1   S       5           174.6700000    0.254098332277
      1   S       6            62.5780000    0.438665087637
      1   S       7            23.5730000    0.314547135094
      1   S       8             5.8908000    0.032727897102

      2   S       9          8326.7000000   -0.000019755715
      2   S      10          1895.6000000   -0.000043822381
      2   S      11           536.7700000   -0.001730264906
      2   S      12           174.6700000   -0.009381263460
      2   S      13            62.5780000   -0.064050766303
      2   S      14            23.5730000   -0.082478179196
      2   S      15             5.8908000    0.478342956889
      2   S      16             2.1852000    0.626896670208

      3   S      17          1895.6000000    0.000016227260
      3   S      18           536.7700000    0.000191135619
      3   S      19           174.6700000    0.001952069674
      3   S      20            62.5780000    0.010578701087
      3   S      21            23.5730000    0.022164934551
      3   S      22             5.8908000   -0.184968323118
      3   S      23             2.1852000   -0.480920750976
      3   S      24             0.4528200    1.243822243872

      4   S      25             0.1620200    1.000000000000

      5   P      26           395.4500000    0.004642761329
      5   P      27            92.8340000    0.036023396489
      5   P      28            29.2660000    0.149058869978
      5   P      29            10.5950000    0.360033266263
      5   P      30             4.0272000    0.455756476221
      5   P      31             1.5484000    0.206167664178

      6   P      32            92.8340000    0.000169901442
      6   P      33            29.2660000   -0.002541839934
      6   P      34            10.5950000   -0.007867614595
      6   P      35             4.0272000   -0.037231009184
      6   P      36             1.5484000    0.161417246830
      6   P      37             0.4613400    0.902230419976

      7   P      38             0.1313100    1.000000000000

      8   D      39             0.5500000    1.000000000000

 O         

     15   S      40          2306.7000000    0.005424388755
     15   S      41           347.1500000    0.040474749465
     15   S      42            78.8900000    0.180219634554
     15   S      43            21.8760000    0.462370311787
     15   S      44             6.6646000    0.454888396263

     16   S      45           347.1500000   -0.000655003786
     16   S      46            78.8900000   -0.005362052952
     16   S      47            21.8760000   -0.074902158894
     16   S      48             6.6646000   -0.181442579655
     16   S      49             1.0669000    1.102006874042

     17   S      50             0.3070000    1.000000000000

     18   P      51            17.0220000    0.068979967443
     18   P      52             3.6838000    0.351985516325
     18   P      53             0.9923400    0.724036547822

     19   P      54             0.2448700    1.000000000000

     20   D      55             1.0000000    1.000000000000

 TOTAL NUMBER OF BASIS SET SHELLS             =   20
 NUMBER OF CARTESIAN GAUSSIAN BASIS FUNCTIONS =   49
 NOTE: THIS RUN WILL RESTRICT THE MO VARIATION SPACE TO SPHERICAL HARMONICS.
 THE NUMBER OF ORBITALS KEPT IN THE VARIATIONAL SPACE WILL BE PRINTED LATER.
 NUMBER OF ELECTRONS                          =   32
 CHARGE OF MOLECULE                           =    0
 SPIN MULTIPLICITY                            =    1
 NUMBER OF OCCUPIED ORBITALS (ALPHA)          =   16
 NUMBER OF OCCUPIED ORBITALS (BETA )          =   16
 TOTAL NUMBER OF ATOMS                        =    3
 THE NUCLEAR REPULSION ENERGY IS      118.5797042695

     LEBEDEV GRID-BASED DFT OPTIONS
     ------------------------------
     DFTTYP=PBE     
     NRAD  =      96     NLEB  =     302
     NRAD0 =      24     NLEB0 =     110
     SWOFF =    5.00E-03 (PURE SCF -> DFT)
     SWITCH=    3.00E-04 (COARSE -> TIGHT GRID)
     THRESH=    0.00E+00 GTHRE=    1.00E+00

 GRIMME'S EMPIRICAL DISPERSION CORRECTION= F

     $CONTRL OPTIONS
     ---------------
 SCFTYP=RHF          RUNTYP=ENERGY       EXETYP=RUN     
 MPLEVL=       0     CITYP =NONE         CCTYP =NONE         VBTYP =NONE    
 DFTTYP=PBE          TDDFT =NONE    
 MULT  =       1     ICHARG=       0     NZVAR =       0     COORD =ZMT     
 PP    =NONE         RELWFN=NONE         LOCAL =NONE         NUMGRD=       F
 ISPHER=       1     NOSYM =       0     MAXIT =      30     UNITS =ANGS    
 PLTORB=       F     MOLPLT=       F     AIMPAC=       F     FRIEND=        
 NPRINT=       7     IREST =       0     GEOM  =INPUT   
 NORMF =       0     NORMP =       0     ITOL  =      20     ICUT  =       9
 INTTYP=BEST         GRDTYP=BEST         QMTTOL= 1.0E-06

     $SYSTEM OPTIONS
     ---------------
  REPLICATED MEMORY=     1000000 WORDS (ON EVERY NODE).
 DISTRIBUTED MEMDDI=           0 MILLION WORDS IN AGGREGATE,
 MEMDDI DISTRIBUTED OVER   1 PROCESSORS IS           0 WORDS/PROCESSOR.
 TOTAL MEMORY REQUESTED ON EACH PROCESSOR=     1000000 WORDS.
 TIMLIM=      525600.00 MINUTES, OR     365.0 DAYS.
 PARALL= F  BALTYP=  DLB     KDIAG=    0  COREFL= F
 MXSEQ2=     300 MXSEQ3=     150

          ----------------
          PROPERTIES INPUT
          ----------------

     MOMENTS            FIELD           POTENTIAL          DENSITY
 IEMOM =       1   IEFLD =       0   IEPOT =       0   IEDEN =       0
 WHERE =COMASS     WHERE =NUCLEI     WHERE =NUCLEI     WHERE =NUCLEI  
 OUTPUT=BOTH       OUTPUT=BOTH       OUTPUT=BOTH       OUTPUT=BOTH    
 IEMINT=       0   IEFINT=       0                     IEDINT=       0
                                                       MORB  =       0
          EXTRAPOLATION IN EFFECT
          DIIS IN EFFECT
 ORBITAL PRINTING OPTION: NPREO=     1    49     2     1

     -------------------------------
     INTEGRAL TRANSFORMATION OPTIONS
     -------------------------------
     NWORD  =            0
     CUTOFF = 1.0E-09     MPTRAN =       0
     DIRTRF =       F     AOINTS =DUP     

          ----------------------
          INTEGRAL INPUT OPTIONS
          ----------------------
 NOPK  =       1 NORDER=       0 SCHWRZ=       F

   --- ENCODED Z MATRIX ---
 COORD  TYPE   I   J   K   L   M   N
    1      1    3   1
    2      1    2   1
    3      2    2   1   3

 THE DETERMINANT OF THE G MATRIX IS 10**(    -4)

 THE DETERMINANT OF THE G MATRIX IS 10**(    -4)
 * * * WARNING * * *
 YOUR B MATRIX HAS A SMALL DETERMINANT.
 THIS SUGGESTS YOU MAY HAVE BADLY CHOSEN COORDINATES.

     ------------------------------------------
     THE POINT GROUP IS CNV, NAXIS= 2, ORDER= 4
     ------------------------------------------

 -- VARIATIONAL SPACE WILL BE RESTRICTED TO PURE SPHERICAL HARMONICS ONLY --
 AFTER EXCLUDING CONTAMINANT COMBINATIONS FROM THE CARTESIAN GAUSSIAN BASIS
 SET, THE NUMBER OF SPHERICAL HARMONICS KEPT IN THE VARIATION SPACE IS   46

     DIMENSIONS OF THE SYMMETRY SUBSPACES ARE
 A1  =   19     A2  =    5     B1  =   14     B2  =    8

 ..... DONE SETTING UP THE RUN .....
 STEP CPU TIME =     0.01 TOTAL CPU TIME =        0.0 (    0.0 MIN)
 TOTAL WALL CLOCK TIME=        0.0 SECONDS, CPU UTILIZATION IS  50.00%

          ********************
          1 ELECTRON INTEGRALS
          ********************
 ...... END OF ONE-ELECTRON INTEGRALS ......
 STEP CPU TIME =     0.00 TOTAL CPU TIME =        0.0 (    0.0 MIN)
 TOTAL WALL CLOCK TIME=        0.0 SECONDS, CPU UTILIZATION IS  50.00%

          -------------
          GUESS OPTIONS
          -------------
          GUESS =HUCKEL            NORB  =       0          NORDER=       0
          MIX   =       F          PRTMO =       F          PUNMO =       F
          TOLZ  = 1.0E-08          TOLE  = 1.0E-05
          SYMDEN=       F          PURIFY=       F

 INITIAL GUESS ORBITALS GENERATED BY HUCKEL   ROUTINE.
 HUCKEL GUESS REQUIRES     21583 WORDS.

 STATISTICS FOR GENERATION OF SYMMETRY ORBITAL -Q- MATRIX
 NUMBER OF CARTESIAN ATOMIC ORBITALS=         49
 NUMBER OF SPHERICAL CONTAMINANTS DROPPED=     3
 NUMBER OF LINEARLY DEPENDENT MOS DROPPED=     0
 TOTAL NUMBER OF MOS IN VARIATION SPACE=      46

 SYMMETRIES FOR INITIAL GUESS ORBITALS FOLLOW.   BOTH SET(S).
    16 ORBITALS ARE OCCUPIED (    7 CORE ORBITALS).
     8=A1       9=?B1     10=?A1     11=B2      12=A1      13=B1      14=A2  
    15=B1      16=A1      17=B2      18=A1      19=B1      20=A1      21=A1  
    22=A1      23=A1      24=A1      25=A1      26=A1  
 ...... END OF INITIAL ORBITAL SELECTION ......
 STEP CPU TIME =     0.01 TOTAL CPU TIME =        0.0 (    0.0 MIN)
 TOTAL WALL CLOCK TIME=        0.0 SECONDS, CPU UTILIZATION IS  66.67%

                    ----------------------
                    AO INTEGRAL TECHNOLOGY
                    ----------------------
     S,P,L SHELL ROTATED AXIS INTEGRALS, REPROGRAMMED BY
        KAZUYA ISHIMURA (IMS) AND JOSE SIERRA (SYNSTAR).
     S,P,D,L SHELL ROTATED AXIS INTEGRALS PROGRAMMED BY
        KAZUYA ISHIMURA (INSTITUTE FOR MOLECULAR SCIENCE).
     S,P,D,F,G SHELL TO TOTAL QUARTET ANGULAR MOMENTUM SUM 5,
        ERIC PROGRAM BY GRAHAM FLETCHER (ELORET AND NASA ADVANCED
        SUPERCOMPUTING DIVISION, AMES RESEARCH CENTER).
     S,P,D,F,G,L SHELL GENERAL RYS QUADRATURE PROGRAMMED BY
        MICHEL DUPUIS (PACIFIC NORTHWEST NATIONAL LABORATORY).

          --------------------
          2 ELECTRON INTEGRALS
          --------------------

 THE -PK- OPTION IS OFF, THE INTEGRALS ARE NOT IN SUPERMATRIX FORM.
 STORING   15000 INTEGRALS/RECORD ON DISK, USING 12 BYTES/INTEGRAL.
 TWO ELECTRON INTEGRAL EVALUATION REQUIRES   90606 WORDS OF MEMORY.
 II,JST,KST,LST =  1  1  1  1 NREC =         1 INTLOC =    1
 II,JST,KST,LST =  2  1  1  1 NREC =         1 INTLOC =    2
 II,JST,KST,LST =  3  1  1  1 NREC =         1 INTLOC =    7
 II,JST,KST,LST =  4  1  1  1 NREC =         1 INTLOC =   22
 II,JST,KST,LST =  5  1  1  1 NREC =         1 INTLOC =   56
 II,JST,KST,LST =  6  1  1  1 NREC =         1 INTLOC =  125
 II,JST,KST,LST =  7  1  1  1 NREC =         1 INTLOC =  329
 II,JST,KST,LST =  8  1  1  1 NREC =         1 INTLOC =  776
 II,JST,KST,LST =  9  1  1  1 NREC =         1 INTLOC = 2864
 II,JST,KST,LST = 10  1  1  1 NREC =         1 INTLOC = 2864
 II,JST,KST,LST = 11  1  1  1 NREC =         1 INTLOC = 2864
 II,JST,KST,LST = 12  1  1  1 NREC =         1 INTLOC = 2864
 II,JST,KST,LST = 13  1  1  1 NREC =         1 INTLOC = 2864
 II,JST,KST,LST = 14  1  1  1 NREC =         1 INTLOC = 2864
 II,JST,KST,LST = 15  1  1  1 NREC =         1 INTLOC = 2864
 II,JST,KST,LST = 16  1  1  1 NREC =         1 INTLOC = 5131
 II,JST,KST,LST = 17  1  1  1 NREC =         1 INTLOC = 8374
 II,JST,KST,LST = 18  1  1  1 NREC =         1 INTLOC =12827
 II,JST,KST,LST = 19  1  1  1 NREC =         3 INTLOC =  912
 II,JST,KST,LST = 20  1  1  1 NREC =         5 INTLOC = 2205
 TOTAL NUMBER OF NONZERO TWO-ELECTRON INTEGRALS =              179677
         12 INTEGRAL RECORDS WERE STORED ON DISK FILE  8.
  ...... END OF TWO-ELECTRON INTEGRALS .....
 STEP CPU TIME =     0.17 TOTAL CPU TIME =        0.2 (    0.0 MIN)
 TOTAL WALL CLOCK TIME=        0.2 SECONDS, CPU UTILIZATION IS 100.00%

          --------------------------
               R-PBE SCF CALCULATION
          --------------------------

     NUCLEAR ENERGY =       118.5797042695
     MAXIT =   30     NPUNCH=    2
     EXTRAP=T  DAMP=F  SHIFT=F  RSTRCT=F  DIIS=T  DEM=F  SOSCF=F
         DENSITY MATRIX CONVERGENCE THRESHOLD=  1.00E-05
     COARSE -> FINE DFT GRID SWITCH THRESHOLD=  3.00E-04 (SWITCH IN $DFT)
                   HF -> DFT SWITCH THRESHOLD=  5.00E-03 (SWOFF IN $DFT)
     MEMORY REQUIRED FOR RHF ITERS=    183108 WORDS.

 DFT CODE IS SWITCHING FROM THE FINE GRID NRAD= 96,  NLEB=  302
                      TO THE COARSE GRID NRAD0= 24, NLEB0=  110

     EXCHANGE FUNCTIONAL   =PBE       
     CORRELATION FUNCTIONAL=PBE       
     DFT THRESHOLD         =.460E-07
     GRID CHANGE THRESHOLD =.300E-03
 FOR AN EULER-MACLAURIN QUADRATURE USING  96 RADIAL POINTS:
 SMALLEST GAUSSIAN PRIMITIVE EXPONENT=        0.1313100000 OF TYPE -P-
 ON ATOM NUMBER   1 HAS RADIAL NORMALIZATION=  1.000000
  LARGEST GAUSSIAN PRIMITIVE EXPONENT=    55510.0000000000 OF TYPE -S-
 ON ATOM NUMBER   1 HAS RADIAL NORMALIZATION=  0.999999
 DFT IS SWITCHED OFF, PERFORMING PURE SCF UNTIL SWOFF THRESHOLD IS REACHED.

 ITER EX DEM     TOTAL ENERGY        E CHANGE  DENSITY CHANGE    DIIS ERROR
   1  0  0     -545.9165077585  -545.9165077585   0.362126046   1.393960572
          * * *   INITIATING DIIS PROCEDURE   * * *
   2  1  0     -546.9207367735    -1.0042290151   0.522070404   0.190169980
   3  2  0     -547.0155434139    -0.0948066403   0.080023136   0.140325055
   4  3  0     -547.0580850570    -0.0425416431   0.072704378   0.018629553
   5  4  0     -547.0599422275    -0.0018571706   0.039951017   0.005806715
   6  5  0     -547.0602357893    -0.0002935618   0.010750513   0.001780010
   7  6  0     -547.0602659023    -0.0000301130   0.000489336   0.000222149
 CONVERGED TO SWOFF, SO DFT CALCULATION IS NOW SWITCHED ON.
          * * *   INITIATING DIIS PROCEDURE   * * *
   8  7  0     -548.1185002805    -1.0582343782   0.155481930   0.097704096
   9  8  0     -548.1359075374    -0.0174072569   0.114305601   0.051078890
  10  9  0     -548.1337991052     0.0021084322   0.047371037   0.062140099
  11 10  0     -548.1438842617    -0.0100851566   0.014783143   0.009786507
  12 11  0     -548.1440689691    -0.0001847073   0.000411362   0.000691037
  13 12  0     -548.1440696547    -0.0000006857   0.000251648   0.000042204
 DFT CODE IS SWITCHING BACK TO THE FINE GRID
          * * *   INITIATING DIIS PROCEDURE   * * *
  14 13  0     -548.1511107357    -0.0070410810   0.021068174   0.010141717
  15 14  0     -548.1513631882    -0.0002524524   0.006818738   0.002195298
  16 15  0     -548.1513590059     0.0000041822   0.001983333   0.003068520
  17 16  0     -548.1513746282    -0.0000156223   0.000448737   0.000565614
  18 17  0     -548.1513754071    -0.0000007789   0.000090388   0.000061384
  19 18  0     -548.1513754214    -0.0000000143   0.000038174   0.000007525
  20 19  0     -548.1513754216    -0.0000000002   0.000007234   0.000001286
  21 20  0     -548.1513754216     0.0000000000   0.000000080   0.000000174

          -----------------
          DENSITY CONVERGED
          -----------------
     TIME TO FORM FOCK OPERATORS=       4.4 SECONDS (       0.2 SEC/ITER)
     TIME TO SOLVE SCF EQUATIONS=       0.0 SECONDS (       0.0 SEC/ITER)

 FINAL R-PBE ENERGY IS     -548.1513754216 AFTER  21 ITERATIONS
 DFT EXCHANGE + CORRELATION ENERGY =       -42.8203398733
 TOTAL ELECTRON NUMBER             =        31.9999704506

          ------------
          EIGENVECTORS
          ------------

                      1          2          3          4          5
                  -88.1809   -18.7834   -18.7834    -7.8176    -5.8393
                     A1         B1         A1         A1         B1  
    1  S  1  S    1.002987   0.000000  -0.000061  -0.273904   0.000000
    2  S  1  S   -0.010211   0.000000   0.000319   1.039438   0.000000
    3  S  1  S    0.002021   0.000000  -0.000348   0.042603   0.000000
    4  S  1  S   -0.000401   0.000000   0.011889  -0.008782   0.000000
    5  S  1  X    0.000000  -0.000309   0.000000   0.000000   0.995591
    6  S  1  Y    0.000000   0.000000   0.000000   0.000000   0.000000
    7  S  1  Z    0.000058   0.000000  -0.000002   0.014590   0.000000
    8  S  1  X    0.000000  -0.000204   0.000000   0.000000   0.011582
    9  S  1  Y    0.000000   0.000000   0.000000   0.000000   0.000000
   10  S  1  Z    0.000199   0.000000   0.001010   0.002577   0.000000
   11  S  1  X    0.000000  -0.006187   0.000000   0.000000  -0.000223
   12  S  1  Y    0.000000   0.000000   0.000000   0.000000   0.000000
   13  S  1  Z    0.000041   0.000000   0.004321  -0.000237   0.000000
   14  S  1 XX    0.000260   0.000000  -0.000656   0.002348   0.000000
   15  S  1 YY   -0.000160   0.000000  -0.000026  -0.001292   0.000000
   16  S  1 ZZ   -0.000100   0.000000   0.000682  -0.001056   0.000000
   17  S  1 XY    0.000000   0.000000   0.000000   0.000000   0.000000
   18  S  1 XZ    0.000000   0.001162   0.000000   0.000000   0.002207
   19  S  1 YZ    0.000000   0.000000   0.000000   0.000000   0.000000
   20  O  2  S    0.000017   0.703214   0.703262  -0.000501   0.001211
   21  O  2  S    0.000022   0.026460   0.026704   0.000022  -0.001341
   22  O  2  S   -0.000372  -0.013126  -0.014815  -0.001897   0.000485
   23  O  2  X   -0.000122   0.001431   0.001292  -0.000122  -0.001905
   24  O  2  Y    0.000000   0.000000   0.000000   0.000000   0.000000
   25  O  2  Z    0.000064  -0.000650  -0.000396   0.000102   0.001111
   26  O  2  X   -0.000281  -0.001901  -0.004184  -0.002126   0.000446
   27  O  2  Y    0.000000   0.000000   0.000000   0.000000   0.000000
   28  O  2  Z    0.000160   0.002001   0.000414   0.001334   0.000044
   29  O  2 XX   -0.000092   0.000220  -0.000371   0.000376  -0.000686
   30  O  2 YY    0.000080   0.000048   0.000074  -0.000139   0.000681
   31  O  2 ZZ    0.000012  -0.000268   0.000297  -0.000237   0.000006
   32  O  2 XY    0.000000   0.000000   0.000000   0.000000   0.000000
   33  O  2 XZ    0.000118   0.000117  -0.000072  -0.000095   0.001093
   34  O  2 YZ    0.000000   0.000000   0.000000   0.000000   0.000000
   35  O  3  S    0.000017  -0.703214   0.703262  -0.000501  -0.001211
   36  O  3  S    0.000022  -0.026460   0.026704   0.000022   0.001341
   37  O  3  S   -0.000372   0.013126  -0.014815  -0.001897  -0.000485
   38  O  3  X    0.000122   0.001431  -0.001292   0.000122  -0.001905
   39  O  3  Y    0.000000   0.000000   0.000000   0.000000   0.000000
   40  O  3  Z    0.000064   0.000650  -0.000396   0.000102  -0.001111
   41  O  3  X    0.000281  -0.001901   0.004184   0.002126   0.000446
   42  O  3  Y    0.000000   0.000000   0.000000   0.000000   0.000000
   43  O  3  Z    0.000160  -0.002001   0.000414   0.001334  -0.000044
   44  O  3 XX   -0.000092  -0.000220  -0.000371   0.000376   0.000686
   45  O  3 YY    0.000080  -0.000048   0.000074  -0.000139  -0.000681
   46  O  3 ZZ    0.000012   0.000268   0.000297  -0.000237  -0.000006
   47  O  3 XY    0.000000   0.000000   0.000000   0.000000   0.000000
   48  O  3 XZ   -0.000118   0.000117   0.000072   0.000095   0.001093
   49  O  3 YZ    0.000000   0.000000   0.000000   0.000000   0.000000

                      6          7          8          9         10
                   -5.8357    -5.8291    -1.1364    -1.0370    -0.5388
                     B2         A1         A1         B1         A1  
    1  S  1  S    0.000000   0.004279   0.056900   0.000000   0.057331
    2  S  1  S    0.000000  -0.016106  -0.168154   0.000000  -0.151633
    3  S  1  S    0.000000   0.000640   0.317926   0.000000   0.375410
    4  S  1  S    0.000000  -0.000911   0.097728   0.000000   0.279403
    5  S  1  X    0.000000   0.000000   0.000000  -0.174829   0.000000
    6  S  1  Y    0.996603   0.000000   0.000000   0.000000   0.000000
    7  S  1  Z    0.000000   0.996436  -0.071244   0.000000   0.054397
    8  S  1  X    0.000000   0.000000   0.000000   0.316600   0.000000
    9  S  1  Y    0.009766   0.000000   0.000000   0.000000   0.000000
   10  S  1  Z    0.000000   0.009524   0.123662   0.000000  -0.112932
   11  S  1  X    0.000000   0.000000   0.000000   0.011581   0.000000
   12  S  1  Y   -0.000415   0.000000   0.000000   0.000000   0.000000
   13  S  1  Z    0.000000  -0.000413  -0.009862   0.000000  -0.088431
   14  S  1 XX    0.000000  -0.000709   0.062211   0.000000  -0.004707
   15  S  1 YY    0.000000  -0.000623  -0.041379   0.000000   0.022049
   16  S  1 ZZ    0.000000   0.001331  -0.020831   0.000000  -0.017343
   17  S  1 XY    0.000000   0.000000   0.000000   0.000000   0.000000
   18  S  1 XZ    0.000000   0.000000   0.000000   0.087208   0.000000
   19  S  1 YZ    0.001067   0.000000   0.000000   0.000000   0.000000
   20  O  2  S    0.000000  -0.000558  -0.123137   0.144051   0.099103
   21  O  2  S    0.000000   0.000676   0.237367  -0.281607  -0.202699
   22  O  2  S    0.000000   0.000561   0.241077  -0.286511  -0.347495
   23  O  2  X    0.000000   0.001241   0.133045  -0.121391   0.182171
   24  O  2  Y    0.000303   0.000000   0.000000   0.000000   0.000000
   25  O  2  Z    0.000000  -0.000298  -0.050791   0.060874  -0.156715
   26  O  2  X    0.000000   0.000061   0.040245  -0.021510   0.093310
   27  O  2  Y   -0.000105   0.000000   0.000000   0.000000   0.000000
   28  O  2  Z    0.000000  -0.000234  -0.008051   0.016033  -0.073079
   29  O  2 XX    0.000000   0.000644   0.015912  -0.007009   0.006024
   30  O  2 YY    0.000000  -0.000282  -0.007393   0.005893  -0.007154
   31  O  2 ZZ    0.000000  -0.000361  -0.008519   0.001116   0.001130
   32  O  2 XY    0.000300   0.000000   0.000000   0.000000   0.000000
   33  O  2 XZ    0.000000  -0.000301  -0.008952   0.011438  -0.012484
   34  O  2 YZ   -0.000201   0.000000   0.000000   0.000000   0.000000
   35  O  3  S    0.000000  -0.000558  -0.123137  -0.144051   0.099103
   36  O  3  S    0.000000   0.000676   0.237367   0.281607  -0.202699
   37  O  3  S    0.000000   0.000561   0.241077   0.286511  -0.347495
   38  O  3  X    0.000000  -0.001241  -0.133045  -0.121391  -0.182171
   39  O  3  Y    0.000303   0.000000   0.000000   0.000000   0.000000
   40  O  3  Z    0.000000  -0.000298  -0.050791  -0.060874  -0.156715
   41  O  3  X    0.000000  -0.000061  -0.040245  -0.021510  -0.093310
   42  O  3  Y   -0.000105   0.000000   0.000000   0.000000   0.000000
   43  O  3  Z    0.000000  -0.000234  -0.008051  -0.016033  -0.073079
   44  O  3 XX    0.000000   0.000644   0.015912   0.007009   0.006024
   45  O  3 YY    0.000000  -0.000282  -0.007393  -0.005893  -0.007154
   46  O  3 ZZ    0.000000  -0.000361  -0.008519  -0.001116   0.001130
   47  O  3 XY   -0.000300   0.000000   0.000000   0.000000   0.000000
   48  O  3 XZ    0.000000   0.000301   0.008952   0.011438   0.012484
   49  O  3 YZ   -0.000201   0.000000   0.000000   0.000000   0.000000

                     11         12         13         14         15
                   -0.4921    -0.4762    -0.4439    -0.3676    -0.3429
                     B2         A1         B1         A2         B1  
    1  S  1  S    0.000000  -0.000636   0.000000   0.000000   0.000000
    2  S  1  S    0.000000   0.015231   0.000000   0.000000   0.000000
    3  S  1  S    0.000000   0.012447   0.000000   0.000000   0.000000
    4  S  1  S    0.000000  -0.145100   0.000000   0.000000   0.000000
    5  S  1  X    0.000000   0.000000  -0.158646   0.000000  -0.005705
    6  S  1  Y   -0.203209   0.000000   0.000000   0.000000   0.000000
    7  S  1  Z    0.000000  -0.181848   0.000000   0.000000   0.000000
    8  S  1  X    0.000000   0.000000   0.360514   0.000000   0.005103
    9  S  1  Y    0.461702   0.000000   0.000000   0.000000   0.000000
   10  S  1  Z    0.000000   0.407922   0.000000   0.000000   0.000000
   11  S  1  X    0.000000   0.000000  -0.013421   0.000000   0.089075
   12  S  1  Y    0.185266   0.000000   0.000000   0.000000   0.000000
   13  S  1  Z    0.000000   0.132544   0.000000   0.000000   0.000000
   14  S  1 XX    0.000000  -0.085754   0.000000   0.000000   0.000000
   15  S  1 YY    0.000000  -0.004756   0.000000   0.000000   0.000000
   16  S  1 ZZ    0.000000   0.090510   0.000000   0.000000   0.000000
   17  S  1 XY    0.000000   0.000000   0.000000  -0.164769   0.000000
   18  S  1 XZ    0.000000   0.000000   0.027485   0.000000  -0.154141
   19  S  1 YZ    0.061345   0.000000   0.000000   0.000000   0.000000
   20  O  2  S    0.000000   0.034740  -0.068858   0.000000   0.001803
   21  O  2  S    0.000000  -0.070444   0.140818   0.000000  -0.008939
   22  O  2  S    0.000000  -0.111733   0.271628   0.000000  -0.002050
   23  O  2  X    0.000000   0.258337  -0.308958   0.000000   0.301099
   24  O  2  Y    0.325528   0.000000   0.000000   0.458533   0.000000
   25  O  2  Z    0.000000   0.227017   0.244242   0.000000   0.357590
   26  O  2  X    0.000000   0.155779  -0.152831   0.000000   0.184153
   27  O  2  Y    0.179027   0.000000   0.000000   0.306743   0.000000
   28  O  2  Z    0.000000   0.125304   0.141393   0.000000   0.244268
   29  O  2 XX    0.000000   0.022330  -0.008808   0.000000   0.019068
   30  O  2 YY    0.000000  -0.006257   0.010695   0.000000  -0.001314
   31  O  2 ZZ    0.000000  -0.016073  -0.001888   0.000000  -0.017755
   32  O  2 XY    0.026211   0.000000   0.000000   0.021673   0.000000
   33  O  2 XZ    0.000000   0.008483   0.018383   0.000000   0.015887
   34  O  2 YZ   -0.010976   0.000000   0.000000  -0.009374   0.000000
   35  O  3  S    0.000000   0.034740   0.068858   0.000000  -0.001803
   36  O  3  S    0.000000  -0.070444  -0.140818   0.000000   0.008939
   37  O  3  S    0.000000  -0.111733  -0.271628   0.000000   0.002050
   38  O  3  X    0.000000  -0.258337  -0.308958   0.000000   0.301099
   39  O  3  Y    0.325528   0.000000   0.000000  -0.458533   0.000000
   40  O  3  Z    0.000000   0.227017  -0.244242   0.000000  -0.357590
   41  O  3  X    0.000000  -0.155779  -0.152831   0.000000   0.184153
   42  O  3  Y    0.179027   0.000000   0.000000  -0.306743   0.000000
   43  O  3  Z    0.000000   0.125304  -0.141393   0.000000  -0.244268
   44  O  3 XX    0.000000   0.022330   0.008808   0.000000  -0.019068
   45  O  3 YY    0.000000  -0.006257  -0.010695   0.000000   0.001314
   46  O  3 ZZ    0.000000  -0.016073   0.001888   0.000000   0.017755
   47  O  3 XY   -0.026211   0.000000   0.000000   0.021673   0.000000
   48  O  3 XZ    0.000000  -0.008483   0.018383   0.000000   0.015887
   49  O  3 YZ   -0.010976   0.000000   0.000000   0.009374   0.000000

                     16         17         18         19         20
                   -0.2534    -0.0997     0.0619     0.1466     0.3410
                     A1         B2         A1         B1         B2  
    1  S  1  S    0.023546   0.000000   0.011588   0.000000   0.000000
    2  S  1  S   -0.128060   0.000000  -0.139671   0.000000   0.000000
    3  S  1  S    0.078836   0.000000  -0.049350   0.000000   0.000000
    4  S  1  S    0.796660   0.000000   1.303146   0.000000   0.000000
    5  S  1  X    0.000000   0.000000   0.000000  -0.087073   0.000000
    6  S  1  Y    0.000000  -0.209874   0.000000   0.000000   0.286594
    7  S  1  Z    0.134940   0.000000  -0.130022   0.000000   0.000000
    8  S  1  X    0.000000   0.000000   0.000000   0.238054   0.000000
    9  S  1  Y    0.000000   0.545260   0.000000   0.000000  -1.097194
   10  S  1  Z   -0.312946   0.000000   0.367626   0.000000   0.000000
   11  S  1  X    0.000000   0.000000   0.000000   1.656476   0.000000
   12  S  1  Y    0.000000   0.631245   0.000000   0.000000   1.223298
   13  S  1  Z   -0.139954   0.000000   1.000353   0.000000   0.000000
   14  S  1 XX   -0.188892   0.000000  -0.164440   0.000000   0.000000
   15  S  1 YY    0.089335   0.000000   0.227422   0.000000   0.000000
   16  S  1 ZZ    0.099558   0.000000  -0.062982   0.000000   0.000000
   17  S  1 XY    0.000000   0.000000   0.000000   0.000000   0.000000
   18  S  1 XZ    0.000000   0.000000   0.000000  -0.181423   0.000000
   19  S  1 YZ    0.000000  -0.082176   0.000000   0.000000  -0.174865
   20  O  2  S    0.017977   0.000000   0.059046  -0.065870   0.000000
   21  O  2  S   -0.034186   0.000000  -0.103569   0.089097   0.000000
   22  O  2  S   -0.127261   0.000000  -0.637611   0.901386   0.000000
   23  O  2  X   -0.140073   0.000000  -0.277859  -0.008187   0.000000
   24  O  2  Y    0.000000  -0.379652   0.000000   0.000000  -0.007039
   25  O  2  Z    0.352535   0.000000  -0.142832  -0.217125   0.000000
   26  O  2  X   -0.103762   0.000000  -0.405726   0.087583   0.000000
   27  O  2  Y    0.000000  -0.379215   0.000000   0.000000  -0.069192
   28  O  2  Z    0.270235   0.000000  -0.166956  -0.301639   0.000000
   29  O  2 XX   -0.006894   0.000000  -0.008931   0.010235   0.000000
   30  O  2 YY    0.005658   0.000000   0.012639  -0.003956   0.000000
   31  O  2 ZZ    0.001236   0.000000  -0.003708  -0.006279   0.000000
   32  O  2 XY    0.000000  -0.003855   0.000000   0.000000  -0.037452
   33  O  2 XZ    0.011282   0.000000   0.007506  -0.009118   0.000000
   34  O  2 YZ    0.000000  -0.001426   0.000000   0.000000   0.010281
   35  O  3  S    0.017977   0.000000   0.059046   0.065870   0.000000
   36  O  3  S   -0.034186   0.000000  -0.103569  -0.089097   0.000000
   37  O  3  S   -0.127261   0.000000  -0.637611  -0.901386   0.000000
   38  O  3  X    0.140073   0.000000   0.277859  -0.008187   0.000000
   39  O  3  Y    0.000000  -0.379652   0.000000   0.000000  -0.007039
   40  O  3  Z    0.352535   0.000000  -0.142832   0.217125   0.000000
   41  O  3  X    0.103762   0.000000   0.405726   0.087583   0.000000
   42  O  3  Y    0.000000  -0.379215   0.000000   0.000000  -0.069192
   43  O  3  Z    0.270235   0.000000  -0.166956   0.301639   0.000000
   44  O  3 XX   -0.006894   0.000000  -0.008931  -0.010235   0.000000
   45  O  3 YY    0.005658   0.000000   0.012639   0.003956   0.000000
   46  O  3 ZZ    0.001236   0.000000  -0.003708   0.006279   0.000000
   47  O  3 XY    0.000000   0.003855   0.000000   0.000000   0.037452
   48  O  3 XZ   -0.011282   0.000000  -0.007506  -0.009118   0.000000
   49  O  3 YZ    0.000000  -0.001426   0.000000   0.000000   0.010281

                     21         22         23         24         25
                    0.3654     0.4400     0.4927     0.5516     0.5676
                     A1         A1         B1         B2         A1  
    1  S  1  S    0.018650  -0.104655   0.000000   0.000000   0.026699
    2  S  1  S    0.057760  -0.315631   0.000000   0.000000   0.067147
    3  S  1  S    0.279616  -1.523797   0.000000   0.000000   0.381245
    4  S  1  S    0.004643   2.644129   0.000000   0.000000   0.319242
    5  S  1  X    0.000000   0.000000   0.213464   0.000000   0.000000
    6  S  1  Y    0.000000   0.000000   0.000000   0.043682   0.000000
    7  S  1  Z    0.283806  -0.001573   0.000000   0.000000  -0.016430
    8  S  1  X    0.000000   0.000000  -0.635179   0.000000   0.000000
    9  S  1  Y    0.000000   0.000000   0.000000  -0.190304   0.000000
   10  S  1  Z   -1.048169   0.096709   0.000000   0.000000   0.085364
   11  S  1  X    0.000000   0.000000   1.173873   0.000000   0.000000
   12  S  1  Y    0.000000   0.000000   0.000000   0.292333   0.000000
   13  S  1  Z    1.177728   0.269736   0.000000   0.000000   0.290017
   14  S  1 XX    0.305700   0.380591   0.000000   0.000000  -0.016021
   15  S  1 YY   -0.109911  -0.277433   0.000000   0.000000  -0.798733
   16  S  1 ZZ   -0.195788  -0.103158   0.000000   0.000000   0.814753
   17  S  1 XY    0.000000   0.000000   0.000000   0.000000   0.000000
   18  S  1 XZ    0.000000   0.000000   0.690816   0.000000   0.000000
   19  S  1 YZ    0.000000   0.000000   0.000000   0.951979   0.000000
   20  O  2  S    0.003860   0.022568  -0.014401   0.000000   0.026286
   21  O  2  S    0.047981   0.000920  -0.048167   0.000000  -0.080113
   22  O  2  S   -0.305279  -0.755977   0.662960   0.000000  -0.274777
   23  O  2  X    0.122505   0.251117  -0.245775   0.000000  -0.099026
   24  O  2  Y    0.000000   0.000000   0.000000  -0.245098   0.000000
   25  O  2  Z   -0.008664  -0.126802   0.199221   0.000000  -0.225187
   26  O  2  X   -0.084198  -0.373312   0.343959   0.000000  -0.321812
   27  O  2  Y    0.000000   0.000000   0.000000  -0.012584   0.000000
   28  O  2  Z    0.028430   0.225551  -0.044989   0.000000   0.117117
   29  O  2 XX   -0.037788  -0.051587   0.023019   0.000000   0.019919
   30  O  2 YY    0.010356   0.032897  -0.035528   0.000000  -0.037496
   31  O  2 ZZ    0.027432   0.018690   0.012509   0.000000   0.017577
   32  O  2 XY    0.000000   0.000000   0.000000   0.029697   0.000000
   33  O  2 XZ   -0.012158   0.047596  -0.053026   0.000000   0.036819
   34  O  2 YZ    0.000000   0.000000   0.000000   0.039169   0.000000
   35  O  3  S    0.003860   0.022568   0.014401   0.000000   0.026286
   36  O  3  S    0.047981   0.000920   0.048167   0.000000  -0.080113
   37  O  3  S   -0.305279  -0.755977  -0.662960   0.000000  -0.274777
   38  O  3  X   -0.122505  -0.251117  -0.245775   0.000000   0.099026
   39  O  3  Y    0.000000   0.000000   0.000000  -0.245098   0.000000
   40  O  3  Z   -0.008664  -0.126802  -0.199221   0.000000  -0.225187
   41  O  3  X    0.084198   0.373312   0.343959   0.000000   0.321812
   42  O  3  Y    0.000000   0.000000   0.000000  -0.012584   0.000000
   43  O  3  Z    0.028430   0.225551   0.044989   0.000000   0.117117
   44  O  3 XX   -0.037788  -0.051587  -0.023019   0.000000   0.019919
   45  O  3 YY    0.010356   0.032897   0.035528   0.000000  -0.037496
   46  O  3 ZZ    0.027432   0.018690  -0.012509   0.000000   0.017577
   47  O  3 XY    0.000000   0.000000   0.000000  -0.029697   0.000000
   48  O  3 XZ    0.012158  -0.047596  -0.053026   0.000000  -0.036819
   49  O  3 YZ    0.000000   0.000000   0.000000   0.039169   0.000000

                     26         27         28         29         30
                    0.6300     0.6526     0.6527     0.7392     0.7977
                     A1         B1         A2         A2         A1  
    1  S  1  S   -0.058197   0.000000   0.000000   0.000000   0.018838
    2  S  1  S   -0.277044   0.000000   0.000000   0.000000   0.101460
    3  S  1  S   -0.998820   0.000000   0.000000   0.000000   0.337301
    4  S  1  S   -0.800493   0.000000   0.000000   0.000000  -0.159266
    5  S  1  X    0.000000  -0.229369   0.000000   0.000000   0.000000
    6  S  1  Y    0.000000   0.000000   0.000000   0.000000   0.000000
    7  S  1  Z    0.098303   0.000000   0.000000   0.000000  -0.049733
    8  S  1  X    0.000000   1.228844   0.000000   0.000000   0.000000
    9  S  1  Y    0.000000   0.000000   0.000000   0.000000   0.000000
   10  S  1  Z   -0.565201   0.000000   0.000000   0.000000   0.187788
   11  S  1  X    0.000000  -0.128662   0.000000   0.000000   0.000000
   12  S  1  Y    0.000000   0.000000   0.000000   0.000000   0.000000
   13  S  1  Z   -0.025060   0.000000   0.000000   0.000000  -0.877834
   14  S  1 XX   -0.364799   0.000000   0.000000   0.000000   0.265375
   15  S  1 YY    0.069003   0.000000   0.000000   0.000000   0.128145
   16  S  1 ZZ    0.295796   0.000000   0.000000   0.000000  -0.393520
   17  S  1 XY    0.000000   0.000000   1.008493   0.263821   0.000000
   18  S  1 XZ    0.000000   0.170352   0.000000   0.000000   0.000000
   19  S  1 YZ    0.000000   0.000000   0.000000   0.000000   0.000000
   20  O  2  S   -0.052265  -0.053322   0.000000   0.000000  -0.002530
   21  O  2  S    0.051955   0.105973   0.000000   0.000000   0.070674
   22  O  2  S    0.668776   0.483876   0.000000   0.000000  -0.007123
   23  O  2  X   -0.321762  -0.140913   0.000000   0.000000  -0.258976
   24  O  2  Y    0.000000   0.000000   0.291798  -0.598746   0.000000
   25  O  2  Z   -0.069639   0.189788   0.000000   0.000000  -0.484903
   26  O  2  X    1.083674   0.983567   0.000000   0.000000   0.237451
   27  O  2  Y    0.000000   0.000000   0.164884   0.832976   0.000000
   28  O  2  Z   -0.375615  -0.590176   0.000000   0.000000   0.965158
   29  O  2 XX   -0.007434  -0.009319   0.000000   0.000000  -0.007041
   30  O  2 YY   -0.004138   0.016068   0.000000   0.000000  -0.003258
   31  O  2 ZZ    0.011571  -0.006749   0.000000   0.000000   0.010299
   32  O  2 XY    0.000000   0.000000  -0.046504  -0.028995   0.000000
   33  O  2 XZ    0.012729   0.028169   0.000000   0.000000  -0.033685
   34  O  2 YZ    0.000000   0.000000   0.050653   0.011769   0.000000
   35  O  3  S   -0.052265   0.053322   0.000000   0.000000  -0.002530
   36  O  3  S    0.051955  -0.105973   0.000000   0.000000   0.070674
   37  O  3  S    0.668776  -0.483876   0.000000   0.000000  -0.007123
   38  O  3  X    0.321762  -0.140913   0.000000   0.000000   0.258976
   39  O  3  Y    0.000000   0.000000  -0.291798   0.598746   0.000000
   40  O  3  Z   -0.069639  -0.189788   0.000000   0.000000  -0.484903
   41  O  3  X   -1.083674   0.983567   0.000000   0.000000  -0.237451
   42  O  3  Y    0.000000   0.000000  -0.164884  -0.832976   0.000000
   43  O  3  Z   -0.375615   0.590176   0.000000   0.000000   0.965158
   44  O  3 XX   -0.007434   0.009319   0.000000   0.000000  -0.007041
   45  O  3 YY   -0.004138  -0.016068   0.000000   0.000000  -0.003258
   46  O  3 ZZ    0.011571   0.006749   0.000000   0.000000   0.010299
   47  O  3 XY    0.000000   0.000000  -0.046504  -0.028995   0.000000
   48  O  3 XZ   -0.012729   0.028169   0.000000   0.000000   0.033685
   49  O  3 YZ    0.000000   0.000000  -0.050653  -0.011769   0.000000

                     31         32         33         34         35
                    0.8333     0.8561     1.2551     1.2889     1.6689
                     B1         B2         A1         B1         B1  
    1  S  1  S    0.000000   0.000000   0.015461   0.000000   0.000000
    2  S  1  S    0.000000   0.000000  -0.172751   0.000000   0.000000
    3  S  1  S    0.000000   0.000000  -0.034571   0.000000   0.000000
    4  S  1  S    0.000000   0.000000   0.918602   0.000000   0.000000
    5  S  1  X   -0.080755   0.000000   0.000000  -0.212702   0.003540
    6  S  1  Y    0.000000  -0.033021   0.000000   0.000000   0.000000
    7  S  1  Z    0.000000   0.000000  -0.119303   0.000000   0.000000
    8  S  1  X    0.374108   0.000000   0.000000   0.762499   0.287476
    9  S  1  Y    0.000000   0.084018   0.000000   0.000000   0.000000
   10  S  1  Z    0.000000   0.000000   0.457013   0.000000   0.000000
   11  S  1  X   -0.546288   0.000000   0.000000   0.586281   1.391822
   12  S  1  Y    0.000000  -0.922600   0.000000   0.000000   0.000000
   13  S  1  Z    0.000000   0.000000   0.135392   0.000000   0.000000
   14  S  1 XX    0.000000   0.000000   1.080685   0.000000   0.000000
   15  S  1 YY    0.000000   0.000000  -0.707658   0.000000   0.000000
   16  S  1 ZZ    0.000000   0.000000  -0.373027   0.000000   0.000000
   17  S  1 XY    0.000000   0.000000   0.000000   0.000000   0.000000
   18  S  1 XZ    0.198756   0.000000   0.000000   0.934147   0.094962
   19  S  1 YZ    0.000000  -0.289389   0.000000   0.000000   0.000000
   20  O  2  S   -0.000509   0.000000   0.034109  -0.035129   0.002426
   21  O  2  S   -0.063198   0.000000  -0.233684   0.120618  -1.272416
   22  O  2  S    0.031923   0.000000  -0.555178   0.728919   2.198209
   23  O  2  X   -0.189573   0.000000  -0.488068   0.667262   0.026465
   24  O  2  Y    0.000000  -0.595452   0.000000   0.000000   0.000000
   25  O  2  Z   -0.575766   0.000000   0.397518  -0.113317   0.059868
   26  O  2  X    0.576073   0.000000   0.027091  -0.139961   0.317250
   27  O  2  Y    0.000000   1.047292   0.000000   0.000000   0.000000
   28  O  2  Z    0.711060   0.000000  -0.038388  -0.055913  -0.423796
   29  O  2 XX   -0.045956   0.000000  -0.043175  -0.106369  -0.043367
   30  O  2 YY    0.019632   0.000000  -0.060457  -0.023957   0.106871
   31  O  2 ZZ    0.026324   0.000000   0.103632   0.130326  -0.063503
   32  O  2 XY    0.000000  -0.045247   0.000000   0.000000   0.000000
   33  O  2 XZ   -0.014520   0.000000  -0.051009   0.011972   0.158751
   34  O  2 YZ    0.000000   0.009124   0.000000   0.000000   0.000000
   35  O  3  S    0.000509   0.000000   0.034109   0.035129  -0.002426
   36  O  3  S    0.063198   0.000000  -0.233684  -0.120618   1.272416
   37  O  3  S   -0.031923   0.000000  -0.555178  -0.728919  -2.198209
   38  O  3  X   -0.189573   0.000000   0.488068   0.667262   0.026465
   39  O  3  Y    0.000000  -0.595452   0.000000   0.000000   0.000000
   40  O  3  Z    0.575766   0.000000   0.397518   0.113317  -0.059868
   41  O  3  X    0.576073   0.000000  -0.027091  -0.139961   0.317250
   42  O  3  Y    0.000000   1.047292   0.000000   0.000000   0.000000
   43  O  3  Z   -0.711060   0.000000  -0.038388   0.055913   0.423796
   44  O  3 XX    0.045956   0.000000  -0.043175   0.106369   0.043367
   45  O  3 YY   -0.019632   0.000000  -0.060457   0.023957  -0.106871
   46  O  3 ZZ   -0.026324   0.000000   0.103632  -0.130326   0.063503
   47  O  3 XY    0.000000   0.045247   0.000000   0.000000   0.000000
   48  O  3 XZ   -0.014520   0.000000   0.051009   0.011972   0.158751
   49  O  3 YZ    0.000000   0.009124   0.000000   0.000000   0.000000

                     36         37         38         39         40
                    1.7129     2.0259     2.0344     2.0596     2.0975
                     A1         A2         B1         B2         A1  
    1  S  1  S   -0.010168   0.000000   0.000000   0.000000  -0.000843
    2  S  1  S   -0.085755   0.000000   0.000000   0.000000  -0.035884
    3  S  1  S   -0.206098   0.000000   0.000000   0.000000  -0.057724
    4  S  1  S    2.568314   0.000000   0.000000   0.000000   0.027249
    5  S  1  X    0.000000   0.000000  -0.011292   0.000000   0.000000
    6  S  1  Y    0.000000   0.000000   0.000000  -0.033584   0.000000
    7  S  1  Z   -0.018148   0.000000   0.000000   0.000000  -0.003284
    8  S  1  X    0.000000   0.000000   0.006867   0.000000   0.000000
    9  S  1  Y    0.000000   0.000000   0.000000   0.144140   0.000000
   10  S  1  Z    0.232690   0.000000   0.000000   0.000000  -0.010606
   11  S  1  X    0.000000   0.000000   0.056311   0.000000   0.000000
   12  S  1  Y    0.000000   0.000000   0.000000   0.010973   0.000000
   13  S  1  Z    0.906216   0.000000   0.000000   0.000000   0.010581
   14  S  1 XX    0.247122   0.000000   0.000000   0.000000   0.135112
   15  S  1 YY   -0.238183   0.000000   0.000000   0.000000  -0.241604
   16  S  1 ZZ   -0.008939   0.000000   0.000000   0.000000   0.106492
   17  S  1 XY    0.000000   0.041596   0.000000   0.000000   0.000000
   18  S  1 XZ    0.000000   0.000000  -0.018527   0.000000   0.000000
   19  S  1 YZ    0.000000   0.000000   0.000000  -0.088538   0.000000
   20  O  2  S    0.007752   0.000000  -0.001203   0.000000   0.002913
   21  O  2  S    1.245212   0.000000   0.027349   0.000000  -0.100705
   22  O  2  S   -2.404101   0.000000  -0.010938   0.000000   0.046678
   23  O  2  X   -0.038823   0.000000   0.045427   0.000000  -0.068452
   24  O  2  Y    0.000000  -0.018790   0.000000   0.033801   0.000000
   25  O  2  Z    0.092094   0.000000   0.026573   0.000000   0.027074
   26  O  2  X   -0.727840   0.000000  -0.076540   0.000000   0.054105
   27  O  2  Y    0.000000   0.033526   0.000000  -0.053737   0.000000
   28  O  2  Z    0.027606   0.000000  -0.043242   0.000000  -0.016093
   29  O  2 XX    0.203948   0.000000  -0.268361   0.000000  -0.067612
   30  O  2 YY   -0.082845   0.000000   0.603524   0.000000   0.597360
   31  O  2 ZZ   -0.121103   0.000000  -0.335163   0.000000  -0.529748
   32  O  2 XY    0.000000   0.439217   0.000000   0.045085   0.000000
   33  O  2 XZ   -0.064755   0.000000  -0.368128   0.000000  -0.270889
   34  O  2 YZ    0.000000   0.555326   0.000000   0.709285   0.000000
   35  O  3  S    0.007752   0.000000   0.001203   0.000000   0.002913
   36  O  3  S    1.245212   0.000000  -0.027349   0.000000  -0.100705
   37  O  3  S   -2.404101   0.000000   0.010938   0.000000   0.046678
   38  O  3  X    0.038823   0.000000   0.045427   0.000000   0.068452
   39  O  3  Y    0.000000   0.018790   0.000000   0.033801   0.000000
   40  O  3  Z    0.092094   0.000000  -0.026573   0.000000   0.027074
   41  O  3  X    0.727840   0.000000  -0.076540   0.000000  -0.054105
   42  O  3  Y    0.000000  -0.033526   0.000000  -0.053737   0.000000
   43  O  3  Z    0.027606   0.000000   0.043242   0.000000  -0.016093
   44  O  3 XX    0.203948   0.000000   0.268361   0.000000  -0.067612
   45  O  3 YY   -0.082845   0.000000  -0.603524   0.000000   0.597360
   46  O  3 ZZ   -0.121103   0.000000   0.335163   0.000000  -0.529748
   47  O  3 XY    0.000000   0.439217   0.000000  -0.045085   0.000000
   48  O  3 XZ    0.064755   0.000000  -0.368128   0.000000   0.270889
   49  O  3 YZ    0.000000  -0.555326   0.000000   0.709285   0.000000

                     41         42         43         44         45
                    2.3114     2.3139     2.4919     2.6317     2.8966
                     B2         B1         A2         A1         A1  
    1  S  1  S    0.000000   0.000000   0.000000  -0.006138  -0.068584
    2  S  1  S    0.000000   0.000000   0.000000  -0.068140  -0.298649
    3  S  1  S    0.000000   0.000000   0.000000  -0.176251  -1.274050
    4  S  1  S    0.000000   0.000000   0.000000  -0.503002  -1.545755
    5  S  1  X    0.000000  -0.011226   0.000000   0.000000   0.000000
    6  S  1  Y    0.088718   0.000000   0.000000   0.000000   0.000000
    7  S  1  Z    0.000000   0.000000   0.000000   0.089717   0.084558
    8  S  1  X    0.000000   0.188839   0.000000   0.000000   0.000000
    9  S  1  Y   -0.380048   0.000000   0.000000   0.000000   0.000000
   10  S  1  Z    0.000000   0.000000   0.000000  -0.484535  -0.769329
   11  S  1  X    0.000000   0.131394   0.000000   0.000000   0.000000
   12  S  1  Y   -0.162535   0.000000   0.000000   0.000000   0.000000
   13  S  1  Z    0.000000   0.000000   0.000000  -0.361635  -0.224107
   14  S  1 XX    0.000000   0.000000   0.000000   0.537839  -0.890923
   15  S  1 YY    0.000000   0.000000   0.000000   0.024938   0.527800
   16  S  1 ZZ    0.000000   0.000000   0.000000  -0.562777   0.363123
   17  S  1 XY    0.000000   0.000000   0.723277   0.000000   0.000000
   18  S  1 XZ    0.000000  -0.592409   0.000000   0.000000   0.000000
   19  S  1 YZ   -0.365280   0.000000   0.000000   0.000000   0.000000
   20  O  2  S    0.000000   0.000662   0.000000  -0.008317  -0.044738
   21  O  2  S    0.000000  -0.332826   0.000000  -0.397601  -0.550961
   22  O  2  S    0.000000   0.325850   0.000000   0.624814   1.826305
   23  O  2  X    0.000000  -0.122677   0.000000  -0.089810   0.203426
   24  O  2  Y   -0.060754   0.000000   0.007998   0.000000   0.000000
   25  O  2  Z    0.000000   0.097148   0.000000   0.036480  -0.128716
   26  O  2  X    0.000000   0.053057   0.000000   0.387354   0.857687
   27  O  2  Y    0.252671   0.000000   0.246167   0.000000   0.000000
   28  O  2  Z    0.000000  -0.269559   0.000000   0.201146  -0.448391
   29  O  2 XX    0.000000  -0.402633   0.000000   0.624541   0.525259
   30  O  2 YY    0.000000  -0.193947   0.000000  -0.113082  -0.472802
   31  O  2 ZZ    0.000000   0.596580   0.000000  -0.511459  -0.052457
   32  O  2 XY    0.759185   0.000000   0.644377   0.000000   0.000000
   33  O  2 XZ    0.000000  -0.423429   0.000000   0.436394  -0.707638
   34  O  2 YZ   -0.064947   0.000000  -0.483293   0.000000   0.000000
   35  O  3  S    0.000000  -0.000662   0.000000  -0.008317  -0.044738
   36  O  3  S    0.000000   0.332826   0.000000  -0.397601  -0.550961
   37  O  3  S    0.000000  -0.325850   0.000000   0.624814   1.826305
   38  O  3  X    0.000000  -0.122677   0.000000   0.089810  -0.203426
   39  O  3  Y   -0.060754   0.000000  -0.007998   0.000000   0.000000
   40  O  3  Z    0.000000  -0.097148   0.000000   0.036480  -0.128716
   41  O  3  X    0.000000   0.053057   0.000000  -0.387354  -0.857687
   42  O  3  Y    0.252671   0.000000  -0.246167   0.000000   0.000000
   43  O  3  Z    0.000000   0.269559   0.000000   0.201146  -0.448391
   44  O  3 XX    0.000000   0.402633   0.000000   0.624541   0.525259
   45  O  3 YY    0.000000   0.193947   0.000000  -0.113082  -0.472802
   46  O  3 ZZ    0.000000  -0.596580   0.000000  -0.511459  -0.052457
   47  O  3 XY   -0.759185   0.000000   0.644377   0.000000   0.000000
   48  O  3 XZ    0.000000  -0.423429   0.000000  -0.436394   0.707638
   49  O  3 YZ   -0.064947   0.000000   0.483293   0.000000   0.000000

                     46
                    2.9767
                     B1  
    1  S  1  S    0.000000
    2  S  1  S    0.000000
    3  S  1  S    0.000000
    4  S  1  S    0.000000
    5  S  1  X   -0.226256
    6  S  1  Y    0.000000
    7  S  1  Z    0.000000
    8  S  1  X    1.826089
    9  S  1  Y    0.000000
   10  S  1  Z    0.000000
   11  S  1  X    0.428124
   12  S  1  Y    0.000000
   13  S  1  Z    0.000000
   14  S  1 XX    0.000000
   15  S  1 YY    0.000000
   16  S  1 ZZ    0.000000
   17  S  1 XY    0.000000
   18  S  1 XZ    0.763115
   19  S  1 YZ    0.000000
   20  O  2  S   -0.044389
   21  O  2  S   -0.459752
   22  O  2  S    1.664584
   23  O  2  X    0.262546
   24  O  2  Y    0.000000
   25  O  2  Z   -0.094676
   26  O  2  X    0.836544
   27  O  2  Y    0.000000
   28  O  2  Z   -0.368693
   29  O  2 XX    0.734101
   30  O  2 YY   -0.412896
   31  O  2 ZZ   -0.321205
   32  O  2 XY    0.000000
   33  O  2 XZ   -0.566759
   34  O  2 YZ    0.000000
   35  O  3  S    0.044389
   36  O  3  S    0.459752
   37  O  3  S   -1.664584
   38  O  3  X    0.262546
   39  O  3  Y    0.000000
   40  O  3  Z    0.094676
   41  O  3  X    0.836544
   42  O  3  Y    0.000000
   43  O  3  Z    0.368693
   44  O  3 XX   -0.734101
   45  O  3 YY    0.412896
   46  O  3 ZZ    0.321205
   47  O  3 XY    0.000000
   48  O  3 XZ   -0.566759
   49  O  3 YZ    0.000000
 ...... END OF RHF CALCULATION ......
 STEP CPU TIME =     4.43 TOTAL CPU TIME =        4.6 (    0.1 MIN)
 TOTAL WALL CLOCK TIME=        4.6 SECONDS, CPU UTILIZATION IS 100.00%

     ---------------------------------------------------------------------
     PROPERTIES FOR THE PBE      DFT FUNCTIONAL (RHF  TYPE) DENSITY MATRIX
     ---------------------------------------------------------------------

          -----------------
          ENERGY COMPONENTS
          -----------------

         WAVEFUNCTION NORMALIZATION =       1.0000000000

                ONE ELECTRON ENERGY =    -990.7535362346
                TWO ELECTRON ENERGY =     324.0224565436
           NUCLEAR REPULSION ENERGY =     118.5797042695
                                      ------------------
                       TOTAL ENERGY =    -548.1513754216

 ELECTRON-ELECTRON POTENTIAL ENERGY =     324.0224565436
  NUCLEUS-ELECTRON POTENTIAL ENERGY =   -1539.8075000446
   NUCLEUS-NUCLEUS POTENTIAL ENERGY =     118.5797042695
                                      ------------------
             TOTAL POTENTIAL ENERGY =   -1097.2053392316
               TOTAL KINETIC ENERGY =     549.0539638100
                 VIRIAL RATIO (V/T) =       1.9983561026

          ---------------------------------------
          MULLIKEN AND LOWDIN POPULATION ANALYSES
          ---------------------------------------

     ATOMIC MULLIKEN POPULATION IN EACH MOLECULAR ORBITAL

                      1          2          3          4          5

                  2.000000   2.000000   2.000000   2.000000   2.000000

    1             2.000063   0.001208   0.002008   2.003087   1.999263
    2            -0.000032   0.999396   0.998996  -0.001544   0.000369
    3            -0.000032   0.999396   0.998996  -0.001544   0.000369

                      6          7          8          9         10

                  2.000000   2.000000   2.000000   2.000000   2.000000

    1             1.999973   1.999708   0.716575   0.524661   0.690397
    2             0.000013   0.000146   0.641713   0.737670   0.654802
    3             0.000013   0.000146   0.641713   0.737670   0.654802

                     11         12         13         14         15

                  2.000000   2.000000   2.000000   2.000000   2.000000

    1             0.928317   0.732329   0.270795   0.175401   0.189391
    2             0.535841   0.633835   0.864603   0.912299   0.905305
    3             0.535841   0.633835   0.864603   0.912299   0.905305

                     16

                  2.000000

    1             1.139871
    2             0.430065
    3             0.430065

               ----- POPULATIONS IN EACH AO -----
                             MULLIKEN      LOWDIN
              1  S  1  S      2.00026     1.99572
              2  S  1  S      2.01057     1.94516
              3  S  1  S      0.89525     0.52954
              4  S  1  S      0.96621     0.57744
              5  S  1  X      1.99681     1.95746
              6  S  1  Y      1.99592     1.95408
              7  S  1  Z      1.99713     1.96348
              8  S  1  X      0.71774     0.61658
              9  S  1  Y      0.64210     0.58530
             10  S  1  Z      0.84352     0.81294
             11  S  1  X      0.06997     0.24306
             12  S  1  Y      0.26872     0.33959
             13  S  1  Z      0.25636     0.38870
             14  S  1 XX      0.11688     0.36622
             15  S  1 YY      0.19786     0.26259
             16  S  1 ZZ      0.17540     0.30775
             17  S  1 XY      0.20079     0.21832
             18  S  1 XZ      0.02155     0.24230
             19  S  1 YZ      0.00000     0.02134
             20  O  2  S      1.99794     1.98007
             21  O  2  S      0.81746     0.62588
             22  O  2  S      0.95561     0.51676
             23  O  2  X      0.99393     0.95209
             24  O  2  Y      0.89235     0.84394
             25  O  2  Z      1.09023     1.05691
             26  O  2  X      0.41655     0.53173
             27  O  2  Y      0.54478     0.58246
             28  O  2  Z      0.57296     0.62891
             29  O  2 XX      0.00500     0.20816
             30  O  2 YY      0.00737     0.18992
             31  O  2 ZZ      0.00922     0.18908
             32  O  2 XY      0.00828     0.01203
             33  O  2 XZ      0.00180     0.01600
             34  O  2 YZ      0.00000     0.00226
             35  O  3  S      1.99794     1.98007
             36  O  3  S      0.81746     0.62588
             37  O  3  S      0.95561     0.51676
             38  O  3  X      0.99393     0.95209
             39  O  3  Y      0.89235     0.84394
             40  O  3  Z      1.09023     1.05691
             41  O  3  X      0.41655     0.53173
             42  O  3  Y      0.54478     0.58246
             43  O  3  Z      0.57296     0.62891
             44  O  3 XX      0.00500     0.20816
             45  O  3 YY      0.00737     0.18992
             46  O  3 ZZ      0.00922     0.18908
             47  O  3 XY      0.00828     0.01203
             48  O  3 XZ      0.00180     0.01600
             49  O  3 YZ      0.00000     0.00226

          ----- MULLIKEN ATOMIC OVERLAP POPULATIONS -----
          (OFF-DIAGONAL ELEMENTS NEED TO BE MULTIPLIED BY 2)

             1           2           3

    1   14.6663625
    2    0.3533413   7.9749772
    3    0.3533413  -0.0148411   7.9749772

          TOTAL MULLIKEN AND LOWDIN ATOMIC POPULATIONS
       ATOM         MULL.POP.    CHARGE          LOW.POP.     CHARGE
    1 S            15.373045    0.626955        15.327567    0.672433
    2 O             8.313477   -0.313477         8.336217   -0.336217
    3 O             8.313477   -0.313477         8.336217   -0.336217

          MULLIKEN SPHERICAL HARMONIC POPULATIONS
       ATOM           S       P       D      F      G      H      I    TOTAL
    1 S             5.87    8.79    0.71   0.00   0.00   0.00   0.00   15.37
    2 O             3.77    4.51    0.03   0.00   0.00   0.00   0.00    8.31
    3 O             3.77    4.51    0.03   0.00   0.00   0.00   0.00    8.31

          -------------------------------
          BOND ORDER AND VALENCE ANALYSIS     BOND ORDER THRESHOLD=0.050
          -------------------------------

                   BOND                       BOND                       BOND
  ATOM PAIR DIST  ORDER      ATOM PAIR DIST  ORDER      ATOM PAIR DIST  ORDER
    1   2  1.300  1.996        1   3  1.300  1.996        2   3  2.356  0.154

                       TOTAL       BONDED        FREE
      ATOM            VALENCE     VALENCE     VALENCE
    1 S                 3.992       3.992       0.000
    2 O                 2.150       2.150       0.000
    3 O                 2.150       2.150       0.000

          ---------------------
          ELECTROSTATIC MOMENTS
          ---------------------

 POINT   1           X           Y           Z (BOHR)    CHARGE
                 0.000000    0.000000    0.000000        0.00 (A.U.)
         DX          DY          DZ         /D/  (DEBYE)
     0.000000    0.000000   -0.711464    0.711464
 ...... END OF PROPERTY EVALUATION ......
 STEP CPU TIME =     0.01 TOTAL CPU TIME =        4.6 (    0.1 MIN)
 TOTAL WALL CLOCK TIME=        4.6 SECONDS, CPU UTILIZATION IS 100.00%
               580000  WORDS OF DYNAMIC MEMORY USED
 EXECUTION OF GAMESS TERMINATED NORMALLY Thu Feb 26 00:14:27 2015
 DDI: 263624 bytes (0.3 MB / 0 MWords) used by master data server.

 ----------------------------------------
 CPU timing information for all processes
 ========================================
 0: 4.611 + 0.28 = 4.640
 ----------------------------------------
 ddikick.x: exited gracefully.
----- accounting info -----
Files used on the master node dftfe.crc.nd.edu were:
-rw-r--r-- 1 pmehta1 campus   37475 Feb 26 00:14 /tmp/gamess.dat
-rw-r--r-- 1 pmehta1 campus     142 Feb 26 00:14 /tmp/gamess.F05
-rw-r--r-- 1 pmehta1 campus 2160288 Feb 26 00:14 /tmp/gamess.F08
-rw-r--r-- 1 pmehta1 campus 1220440 Feb 26 00:14 /tmp/gamess.F10
Thu Feb 26 00:14:30 EST 2015
0.243u 0.178s 0:08.06 5.0%	0+0k 0+104io 0pf+0w
