   1   1   1   0
  0.1510406E+02  0.2774616E-09  0.2774616E-09  0.2774616E-09  0.5000000E-15
   1.0000000000000000E-004
  CAR 
 Au, FCC                                 
     30.79795112     -5.15039189  301      7.56066653      1.00000000
     -5.150  0.0000E+00  0.0000E+00
     -5.031  0.0000E+00  0.0000E+00
     -4.911  0.0000E+00  0.0000E+00
     -4.791  0.0000E+00  0.0000E+00
     -4.671  0.0000E+00  0.0000E+00
     -4.551  0.0000E+00  0.0000E+00
     -4.431  0.0000E+00  0.0000E+00
     -4.312  0.0000E+00  0.0000E+00
     -4.192  0.0000E+00  0.0000E+00
     -4.072  0.0000E+00  0.0000E+00
     -3.952  0.0000E+00  0.0000E+00
     -3.832  0.0000E+00  0.0000E+00
     -3.712  0.0000E+00  0.0000E+00
     -3.593  0.0000E+00  0.0000E+00
     -3.473  0.2293E-01  0.3254E-02
     -3.353  0.3101E-01  0.6477E-02
     -3.233  0.4000E-01  0.1072E-01
     -3.113  0.4992E-01  0.1610E-01
     -2.993  0.6076E-01  0.2272E-01
     -2.874  0.7252E-01  0.3070E-01
     -2.754  0.7574E-01  0.3956E-01
     -2.634  0.8279E-01  0.4906E-01
     -2.514  0.8974E-01  0.5940E-01
     -2.394  0.9659E-01  0.7056E-01
     -2.275  0.1033E+00  0.8254E-01
     -2.155  0.1110E+00  0.9536E-01
     -2.035  0.1211E+00  0.1092E+00
     -1.915  0.1331E+00  0.1244E+00
     -1.795  0.1471E+00  0.1412E+00
     -1.675  0.1640E+00  0.1598E+00
     -1.556  0.1862E+00  0.1808E+00
     -1.436  0.2082E+00  0.2044E+00
     -1.316  0.2313E+00  0.2307E+00
     -1.196  0.2557E+00  0.2599E+00
     -1.076  0.4460E+00  0.3001E+00
     -0.956  0.6278E+00  0.3653E+00
     -0.837  0.6157E+00  0.4409E+00
     -0.717  0.8203E+00  0.5316E+00
     -0.597  0.9711E+00  0.6387E+00
     -0.477  0.1209E+01  0.7877E+00
     -0.357  0.1531E+01  0.9565E+00
     -0.237  0.1805E+01  0.1158E+01
     -0.118  0.1616E+01  0.1374E+01
      0.002  0.1579E+01  0.1564E+01
      0.122  0.1585E+01  0.1755E+01
      0.242  0.1729E+01  0.1950E+01
      0.362  0.1470E+01  0.2189E+01
      0.482  0.8929E+00  0.2330E+01
      0.601  0.7097E+00  0.2417E+01
      0.721  0.8352E+00  0.2509E+01
      0.841  0.1439E+01  0.2641E+01
      0.961  0.1484E+01  0.2820E+01
      1.081  0.1396E+01  0.2990E+01
      1.200  0.1489E+01  0.3158E+01
      1.320  0.1585E+01  0.3340E+01
      1.440  0.1360E+01  0.3547E+01
      1.560  0.1449E+01  0.3716E+01
      1.680  0.1517E+01  0.3893E+01
      1.800  0.1570E+01  0.4082E+01
      1.919  0.1762E+01  0.4279E+01
      2.039  0.1930E+01  0.4521E+01
      2.159  0.3002E+01  0.4825E+01
      2.279  0.2944E+01  0.5182E+01
      2.399  0.2467E+01  0.5542E+01
      2.519  0.1184E+01  0.5744E+01
      2.638  0.1102E+01  0.5880E+01
      2.758  0.1098E+01  0.6006E+01
      2.878  0.1348E+01  0.6175E+01
      2.998  0.1602E+01  0.6351E+01
      3.118  0.1560E+01  0.6550E+01
      3.238  0.1368E+01  0.6730E+01
      3.357  0.1267E+01  0.6888E+01
      3.477  0.1975E+01  0.7114E+01
      3.597  0.1781E+01  0.7336E+01
      3.717  0.1732E+01  0.7544E+01
      3.837  0.1355E+01  0.7756E+01
      3.957  0.1355E+01  0.7917E+01
      4.076  0.1383E+01  0.8083E+01
      4.196  0.1293E+01  0.8245E+01
      4.316  0.1321E+01  0.8402E+01
      4.436  0.2002E+01  0.8561E+01
      4.556  0.1348E+01  0.8724E+01
      4.675  0.1383E+01  0.8887E+01
      4.795  0.1426E+01  0.9056E+01
      4.915  0.1372E+01  0.9232E+01
      5.035  0.2158E+01  0.9427E+01
      5.155  0.2412E+01  0.9711E+01
      5.275  0.2030E+01  0.9980E+01
      5.394  0.1386E+01  0.1018E+02
      5.514  0.1119E+01  0.1033E+02
      5.634  0.2690E+00  0.1048E+02
      5.754  0.2716E+00  0.1051E+02
      5.874  0.2729E+00  0.1054E+02
      5.994  0.2630E+00  0.1058E+02
      6.113  0.2593E+00  0.1061E+02
      6.233  0.2560E+00  0.1064E+02
      6.353  0.2585E+00  0.1067E+02
      6.473  0.2609E+00  0.1070E+02
      6.593  0.2631E+00  0.1073E+02
      6.713  0.2653E+00  0.1076E+02
      6.832  0.2673E+00  0.1080E+02
      6.952  0.2692E+00  0.1083E+02
      7.072  0.2709E+00  0.1086E+02
      7.192  0.2911E+00  0.1090E+02
      7.312  0.2663E+00  0.1093E+02
      7.432  0.2658E+00  0.1097E+02
      7.551  0.2652E+00  0.1100E+02
      7.671  0.2645E+00  0.1103E+02
      7.791  0.2638E+00  0.1106E+02
      7.911  0.2630E+00  0.1109E+02
      8.031  0.2622E+00  0.1112E+02
      8.150  0.2613E+00  0.1116E+02
      8.270  0.2603E+00  0.1119E+02
      8.390  0.2593E+00  0.1122E+02
      8.510  0.2675E+00  0.1126E+02
      8.630  0.2662E+00  0.1129E+02
      8.750  0.2768E+00  0.1132E+02
      8.869  0.2767E+00  0.1135E+02
      8.989  0.2766E+00  0.1139E+02
      9.109  0.2765E+00  0.1142E+02
      9.229  0.2764E+00  0.1145E+02
      9.349  0.2828E+00  0.1149E+02
      9.469  0.2864E+00  0.1152E+02
      9.588  0.2839E+00  0.1156E+02
      9.708  0.2753E+00  0.1159E+02
      9.828  0.2606E+00  0.1162E+02
      9.948  0.2525E+00  0.1165E+02
     10.068  0.2451E+00  0.1168E+02
     10.188  0.2381E+00  0.1171E+02
     10.307  0.2455E+00  0.1174E+02
     10.427  0.2475E+00  0.1177E+02
     10.547  0.2524E+00  0.1180E+02
     10.667  0.2300E+00  0.1183E+02
     10.787  0.2089E+00  0.1185E+02
     10.907  0.1889E+00  0.1188E+02
     11.026  0.1701E+00  0.1190E+02
     11.146  0.1525E+00  0.1192E+02
     11.266  0.1361E+00  0.1194E+02
     11.386  0.1208E+00  0.1195E+02
     11.506  0.2714E+00  0.1198E+02
     11.626  0.2169E+00  0.1201E+02
     11.745  0.2105E+00  0.1203E+02
     11.865  0.1643E+00  0.1207E+02
     11.985  0.1760E+00  0.1209E+02
     12.105  0.1868E+00  0.1211E+02
     12.225  0.1968E+00  0.1213E+02
     12.344  0.2185E+00  0.1216E+02
     12.464  0.2395E+00  0.1219E+02
     12.584  0.2600E+00  0.1222E+02
     12.704  0.2799E+00  0.1225E+02
     12.824  0.2993E+00  0.1228E+02
     12.944  0.3181E+00  0.1232E+02
     13.063  0.3371E+00  0.1236E+02
     13.183  0.4020E+00  0.1240E+02
     13.303  0.4796E+00  0.1246E+02
     13.423  0.4796E+00  0.1253E+02
     13.543  0.4613E+00  0.1259E+02
     13.663  0.4417E+00  0.1264E+02
     13.782  0.4207E+00  0.1269E+02
     13.902  0.3804E+00  0.1274E+02
     14.022  0.3591E+00  0.1278E+02
     14.142  0.3375E+00  0.1282E+02
     14.262  0.3154E+00  0.1286E+02
     14.382  0.2939E+00  0.1290E+02
     14.501  0.2861E+00  0.1294E+02
     14.621  0.2780E+00  0.1297E+02
     14.741  0.2415E+00  0.1301E+02
     14.861  0.2337E+00  0.1304E+02
     14.981  0.2262E+00  0.1306E+02
     15.101  0.2190E+00  0.1309E+02
     15.220  0.2121E+00  0.1312E+02
     15.340  0.2055E+00  0.1314E+02
     15.460  0.1991E+00  0.1316E+02
     15.580  0.1931E+00  0.1319E+02
     15.700  0.1873E+00  0.1321E+02
     15.819  0.1818E+00  0.1323E+02
     15.939  0.1714E+00  0.1325E+02
     16.059  0.2586E+00  0.1329E+02
     16.179  0.2806E+00  0.1333E+02
     16.299  0.3039E+00  0.1336E+02
     16.419  0.3287E+00  0.1340E+02
     16.538  0.3548E+00  0.1344E+02
     16.658  0.4228E+00  0.1349E+02
     16.778  0.5015E+00  0.1354E+02
     16.898  0.3890E+00  0.1360E+02
     17.018  0.3872E+00  0.1365E+02
     17.138  0.3847E+00  0.1369E+02
     17.257  0.3815E+00  0.1374E+02
     17.377  0.3777E+00  0.1379E+02
     17.497  0.3732E+00  0.1383E+02
     17.617  0.3680E+00  0.1388E+02
     17.737  0.3367E+00  0.1393E+02
     17.857  0.3304E+00  0.1397E+02
     17.976  0.3259E+00  0.1400E+02
     18.096  0.3160E+00  0.1404E+02
     18.216  0.3149E+00  0.1408E+02
     18.336  0.3137E+00  0.1412E+02
     18.456  0.3127E+00  0.1416E+02
     18.576  0.3118E+00  0.1419E+02
     18.695  0.6127E+00  0.1428E+02
     18.815  0.6958E+00  0.1435E+02
     18.935  0.4714E+00  0.1442E+02
     19.055  0.4773E+00  0.1448E+02
     19.175  0.4831E+00  0.1454E+02
     19.294  0.4878E+00  0.1459E+02
     19.414  0.4910E+00  0.1465E+02
     19.534  0.4936E+00  0.1471E+02
     19.654  0.4957E+00  0.1477E+02
     19.774  0.4966E+00  0.1483E+02
     19.894  0.5006E+00  0.1489E+02
     20.013  0.4993E+00  0.1495E+02
     20.133  0.4951E+00  0.1501E+02
     20.253  0.4898E+00  0.1507E+02
     20.373  0.4851E+00  0.1513E+02
     20.493  0.4872E+00  0.1519E+02
     20.613  0.4892E+00  0.1524E+02
     20.732  0.4929E+00  0.1530E+02
     20.852  0.5002E+00  0.1536E+02
     20.972  0.5094E+00  0.1542E+02
     21.092  0.5181E+00  0.1549E+02
     21.212  0.5292E+00  0.1555E+02
     21.332  0.5462E+00  0.1561E+02
     21.451  0.5679E+00  0.1568E+02
     21.571  0.5550E+00  0.1575E+02
     21.691  0.5563E+00  0.1581E+02
     21.811  0.5603E+00  0.1588E+02
     21.931  0.5550E+00  0.1595E+02
     22.051  0.5526E+00  0.1601E+02
     22.170  0.5653E+00  0.1608E+02
     22.290  0.5782E+00  0.1615E+02
     22.410  0.6840E+00  0.1624E+02
     22.530  0.6281E+00  0.1632E+02
     22.650  0.5935E+00  0.1639E+02
     22.769  0.5642E+00  0.1646E+02
     22.889  0.5403E+00  0.1653E+02
     23.009  0.5219E+00  0.1659E+02
     23.129  0.5312E+00  0.1666E+02
     23.249  0.5185E+00  0.1672E+02
     23.369  0.5344E+00  0.1678E+02
     23.488  0.5423E+00  0.1685E+02
     23.608  0.5685E+00  0.1691E+02
     23.728  0.5191E+00  0.1698E+02
     23.848  0.5354E+00  0.1704E+02
     23.968  0.5147E+00  0.1711E+02
     24.088  0.5453E+00  0.1717E+02
     24.207  0.5285E+00  0.1723E+02
     24.327  0.4651E+00  0.1729E+02
     24.447  0.4289E+00  0.1735E+02
     24.567  0.3950E+00  0.1740E+02
     24.687  0.3634E+00  0.1744E+02
     24.807  0.3341E+00  0.1748E+02
     24.926  0.3072E+00  0.1752E+02
     25.046  0.2630E+00  0.1755E+02
     25.166  0.2442E+00  0.1758E+02
     25.286  0.2242E+00  0.1761E+02
     25.406  0.2238E+00  0.1764E+02
     25.526  0.2233E+00  0.1767E+02
     25.645  0.2222E+00  0.1769E+02
     25.765  0.2119E+00  0.1772E+02
     25.885  0.2115E+00  0.1775E+02
     26.005  0.1901E+00  0.1777E+02
     26.125  0.1755E+00  0.1779E+02
     26.244  0.1582E+00  0.1781E+02
     26.364  0.1395E+00  0.1783E+02
     26.484  0.1275E+00  0.1785E+02
     26.604  0.1177E+00  0.1786E+02
     26.724  0.1105E+00  0.1788E+02
     26.844  0.1045E+00  0.1789E+02
     26.963  0.9885E-01  0.1790E+02
     27.083  0.1493E+00  0.1793E+02
     27.203  0.1267E+00  0.1794E+02
     27.323  0.1054E+00  0.1796E+02
     27.443  0.8530E-01  0.1797E+02
     27.563  0.6646E-01  0.1798E+02
     27.682  0.4888E-01  0.1798E+02
     27.802  0.2261E-01  0.1799E+02
     27.922  0.1880E-01  0.1799E+02
     28.042  0.1535E-01  0.1799E+02
     28.162  0.1225E-01  0.1800E+02
     28.282  0.9493E-02  0.1800E+02
     28.401  0.7090E-02  0.1800E+02
     28.521  0.5036E-02  0.1800E+02
     28.641  0.3334E-02  0.1800E+02
     28.761  0.1981E-02  0.1800E+02
     28.881  0.9781E-03  0.1800E+02
     29.001  0.3255E-03  0.1800E+02
     29.120  0.2315E-04  0.1800E+02
     29.240  0.0000E+00  0.1800E+02
     29.360  0.0000E+00  0.1800E+02
     29.480  0.0000E+00  0.1800E+02
     29.600  0.0000E+00  0.1800E+02
     29.720  0.0000E+00  0.1800E+02
     29.839  0.0000E+00  0.1800E+02
     29.959  0.0000E+00  0.1800E+02
     30.079  0.0000E+00  0.1800E+02
     30.199  0.0000E+00  0.1800E+02
     30.319  0.0000E+00  0.1800E+02
     30.438  0.0000E+00  0.1800E+02
     30.558  0.0000E+00  0.1800E+02
     30.678  0.0000E+00  0.1800E+02
     30.798  0.0000E+00  0.1800E+02
     30.79795112     -5.15039189  301      7.56066653      1.00000000
     -5.150  0.0000E+00  0.0000E+00  0.0000E+00  0.0000E+00  0.0000E+00  0.0000E+00  0.0000E+00  0.0000E+00  0.0000E+00
     -5.031  0.0000E+00  0.0000E+00  0.0000E+00  0.0000E+00  0.0000E+00  0.0000E+00  0.0000E+00  0.0000E+00  0.0000E+00
     -4.911  0.0000E+00  0.0000E+00  0.0000E+00  0.0000E+00  0.0000E+00  0.0000E+00  0.0000E+00  0.0000E+00  0.0000E+00
     -4.791  0.0000E+00  0.0000E+00  0.0000E+00  0.0000E+00  0.0000E+00  0.0000E+00  0.0000E+00  0.0000E+00  0.0000E+00
     -4.671  0.0000E+00  0.0000E+00  0.0000E+00  0.0000E+00  0.0000E+00  0.0000E+00  0.0000E+00  0.0000E+00  0.0000E+00
     -4.551  0.0000E+00  0.0000E+00  0.0000E+00  0.0000E+00  0.0000E+00  0.0000E+00  0.0000E+00  0.0000E+00  0.0000E+00
     -4.431  0.0000E+00  0.0000E+00  0.0000E+00  0.0000E+00  0.0000E+00  0.0000E+00  0.0000E+00  0.0000E+00  0.0000E+00
     -4.312  0.0000E+00  0.0000E+00  0.0000E+00  0.0000E+00  0.0000E+00  0.0000E+00  0.0000E+00  0.0000E+00  0.0000E+00
     -4.192  0.0000E+00  0.0000E+00  0.0000E+00  0.0000E+00  0.0000E+00  0.0000E+00  0.0000E+00  0.0000E+00  0.0000E+00
     -4.072  0.0000E+00  0.0000E+00  0.0000E+00  0.0000E+00  0.0000E+00  0.0000E+00  0.0000E+00  0.0000E+00  0.0000E+00
     -3.952  0.0000E+00  0.0000E+00  0.0000E+00  0.0000E+00  0.0000E+00  0.0000E+00  0.0000E+00  0.0000E+00  0.0000E+00
     -3.832  0.0000E+00  0.0000E+00  0.0000E+00  0.0000E+00  0.0000E+00  0.0000E+00  0.0000E+00  0.0000E+00  0.0000E+00
     -3.712  0.0000E+00  0.0000E+00  0.0000E+00  0.0000E+00  0.0000E+00  0.0000E+00  0.0000E+00  0.0000E+00  0.0000E+00
     -3.593  0.0000E+00  0.0000E+00  0.0000E+00  0.0000E+00  0.0000E+00  0.0000E+00  0.0000E+00  0.0000E+00  0.0000E+00
     -3.473  0.1518E-01  0.1038E-03  0.1038E-03  0.3149E-03  0.2599E-04  0.1844E-04  0.6194E-05  0.2599E-04  0.1858E-04
     -3.353  0.2032E-01  0.1694E-03  0.1694E-03  0.5169E-03  0.5033E-04  0.5656E-04  0.1152E-04  0.5032E-04  0.3455E-04
     -3.233  0.2601E-01  0.2482E-03  0.2482E-03  0.7515E-03  0.8171E-04  0.1065E-03  0.1779E-04  0.8171E-04  0.5337E-04
     -3.113  0.3224E-01  0.3402E-03  0.3402E-03  0.1019E-02  0.1201E-03  0.1682E-03  0.2501E-04  0.1201E-03  0.7503E-04
     -2.993  0.3903E-01  0.4454E-03  0.4454E-03  0.1318E-02  0.1656E-03  0.2416E-03  0.3318E-04  0.1656E-03  0.9954E-04
     -2.874  0.4638E-01  0.5638E-03  0.5638E-03  0.1650E-02  0.2182E-03  0.3269E-03  0.4230E-04  0.2182E-03  0.1269E-03
     -2.754  0.4692E-01  0.8654E-03  0.1210E-02  0.1682E-02  0.3616E-03  0.6586E-03  0.2774E-03  0.3348E-03  0.1568E-03
     -2.634  0.5047E-01  0.1053E-02  0.1579E-02  0.1828E-02  0.5686E-03  0.8822E-03  0.4305E-03  0.4574E-03  0.1945E-03
     -2.514  0.5382E-01  0.1230E-02  0.1962E-02  0.1994E-02  0.8342E-03  0.1129E-02  0.6079E-03  0.6166E-03  0.2375E-03
     -2.394  0.5696E-01  0.1396E-02  0.2358E-02  0.2180E-02  0.1158E-02  0.1399E-02  0.8097E-03  0.8124E-03  0.2859E-03
     -2.275  0.5989E-01  0.1550E-02  0.2769E-02  0.2387E-02  0.1541E-02  0.1691E-02  0.1036E-02  0.1045E-02  0.3397E-03
     -2.155  0.6317E-01  0.1733E-02  0.3149E-02  0.2683E-02  0.2059E-02  0.2078E-02  0.1264E-02  0.1319E-02  0.4214E-03
     -2.035  0.6744E-01  0.1976E-02  0.3509E-02  0.3102E-02  0.2790E-02  0.2659E-02  0.1482E-02  0.1709E-02  0.5361E-03
     -1.915  0.7255E-01  0.2264E-02  0.3876E-02  0.3613E-02  0.3705E-02  0.3419E-02  0.1701E-02  0.2228E-02  0.6713E-03
     -1.795  0.7850E-01  0.2595E-02  0.4252E-02  0.4215E-02  0.4810E-02  0.4361E-02  0.1922E-02  0.2883E-02  0.8272E-03
     -1.675  0.8552E-01  0.2942E-02  0.4644E-02  0.4945E-02  0.6241E-02  0.5644E-02  0.2158E-02  0.3840E-02  0.1003E-02
     -1.556  0.9288E-01  0.3246E-02  0.5621E-02  0.5624E-02  0.8199E-02  0.7383E-02  0.4514E-02  0.5184E-02  0.1168E-02
     -1.436  0.9980E-01  0.3514E-02  0.6395E-02  0.6328E-02  0.1056E-01  0.9406E-02  0.6672E-02  0.6732E-02  0.1325E-02
     -1.316  0.1065E+00  0.3771E-02  0.7264E-02  0.6990E-02  0.1329E-01  0.1171E-01  0.9314E-02  0.8487E-02  0.1474E-02
     -1.196  0.1128E+00  0.4017E-02  0.8229E-02  0.7609E-02  0.1641E-01  0.1429E-01  0.1244E-01  0.1045E-01  0.1617E-02
     -1.076  0.1632E+00  0.5987E-02  0.1090E-01  0.1107E-01  0.4716E-01  0.4701E-01  0.1706E-01  0.3642E-01  0.2449E-02
     -0.956  0.1941E+00  0.6552E-02  0.1269E-01  0.1163E-01  0.8665E-01  0.9021E-01  0.2099E-01  0.6940E-01  0.2719E-02
     -0.837  0.1825E+00  0.6464E-02  0.1393E-01  0.1182E-01  0.8900E-01  0.9149E-01  0.2514E-01  0.6330E-01  0.3110E-02
     -0.717  0.1949E+00  0.7236E-02  0.1662E-01  0.1219E-01  0.1077E+00  0.1008E+00  0.1481E+00  0.6529E-01  0.3820E-02
     -0.597  0.2033E+00  0.8138E-02  0.1970E-01  0.1241E-01  0.1304E+00  0.1118E+00  0.2253E+00  0.6691E-01  0.5179E-02
     -0.477  0.2261E+00  0.9572E-02  0.2946E-01  0.1292E-01  0.1737E+00  0.1259E+00  0.3269E+00  0.6549E-01  0.8898E-02
     -0.357  0.2296E+00  0.1180E-01  0.3258E-01  0.1487E-01  0.3444E+00  0.1510E+00  0.3936E+00  0.6694E-01  0.1572E-01
     -0.237  0.2305E+00  0.1502E-01  0.3454E-01  0.1738E-01  0.4794E+00  0.1888E+00  0.4278E+00  0.7096E-01  0.3750E-01
     -0.118  0.1701E+00  0.1542E-01  0.2202E-01  0.2039E-01  0.5268E+00  0.1869E+00  0.3082E+00  0.6379E-01  0.4855E-01
      0.002  0.1383E+00  0.1618E-01  0.1815E-01  0.2089E-01  0.5728E+00  0.1646E+00  0.3041E+00  0.5283E-01  0.5248E-01
      0.122  0.1194E+00  0.1797E-01  0.1744E-01  0.2156E-01  0.5810E+00  0.1666E+00  0.3161E+00  0.4723E-01  0.6294E-01
      0.242  0.1222E+00  0.2166E-01  0.1801E-01  0.2657E-01  0.6263E+00  0.2032E+00  0.3334E+00  0.4801E-01  0.7724E-01
      0.362  0.6773E-01  0.2263E-01  0.1666E-01  0.2075E-01  0.5499E+00  0.1383E+00  0.3276E+00  0.2847E-01  0.8815E-01
      0.482  0.2216E-01  0.1405E-01  0.1035E-01  0.1416E-01  0.3908E+00  0.9134E-01  0.1748E+00  0.1412E-01  0.4050E-01
      0.601  0.5633E-02  0.1144E-01  0.8270E-02  0.1229E-01  0.3277E+00  0.9359E-01  0.1222E+00  0.1098E-01  0.2671E-01
      0.721  0.6987E-02  0.1504E-01  0.1051E-01  0.1483E-01  0.3383E+00  0.1270E+00  0.1614E+00  0.1545E-01  0.3753E-01
      0.841  0.1130E-01  0.2781E-01  0.2924E-01  0.2290E-01  0.3740E+00  0.3926E+00  0.2915E+00  0.2943E-01  0.7144E-01
      0.961  0.1399E-01  0.3410E-01  0.1933E-01  0.2831E-01  0.3652E+00  0.2915E+00  0.3903E+00  0.4525E-01  0.9824E-01
      1.081  0.1453E-01  0.2976E-01  0.1428E-01  0.2437E-01  0.3262E+00  0.2325E+00  0.3766E+00  0.6820E-01  0.1303E+00
      1.200  0.1681E-01  0.2475E-01  0.1673E-01  0.2178E-01  0.3168E+00  0.3161E+00  0.3343E+00  0.1135E+00  0.1493E+00
      1.320  0.1984E-01  0.2144E-01  0.1889E-01  0.2137E-01  0.3249E+00  0.3601E+00  0.3121E+00  0.1570E+00  0.1671E+00
      1.440  0.1670E-01  0.1549E-01  0.1387E-01  0.1600E-01  0.2634E+00  0.3290E+00  0.2597E+00  0.1472E+00  0.1518E+00
      1.560  0.2565E-01  0.1925E-01  0.2332E-01  0.1885E-01  0.2164E+00  0.4188E+00  0.2371E+00  0.1412E+00  0.1893E+00
      1.680  0.3163E-01  0.1992E-01  0.3218E-01  0.2408E-01  0.2333E+00  0.4362E+00  0.2273E+00  0.1279E+00  0.2150E+00
      1.800  0.3656E-01  0.2052E-01  0.4160E-01  0.3003E-01  0.2545E+00  0.4451E+00  0.2128E+00  0.1185E+00  0.2315E+00
      1.919  0.4808E-01  0.2405E-01  0.5544E-01  0.3930E-01  0.3006E+00  0.5023E+00  0.2271E+00  0.1157E+00  0.2419E+00
      2.039  0.4723E-01  0.1958E-01  0.6127E-01  0.2989E-01  0.3690E+00  0.3933E+00  0.3662E+00  0.1822E+00  0.2529E+00
      2.159  0.4896E-01  0.2297E-01  0.6862E-01  0.3244E-01  0.5937E+00  0.5213E+00  0.5629E+00  0.3881E+00  0.4806E+00
      2.279  0.4512E-01  0.2013E-01  0.6794E-01  0.3260E-01  0.6066E+00  0.6124E+00  0.4799E+00  0.4492E+00  0.3647E+00
      2.399  0.4011E-01  0.1509E-01  0.6121E-01  0.2745E-01  0.5305E+00  0.4206E+00  0.4194E+00  0.4980E+00  0.2358E+00
      2.519  0.3081E-01  0.6222E-02  0.4007E-01  0.1323E-01  0.2072E+00  0.2290E+00  0.2051E+00  0.2716E+00  0.7069E-01
      2.638  0.3011E-01  0.7641E-02  0.3887E-01  0.1336E-01  0.1795E+00  0.2044E+00  0.1541E+00  0.2803E+00  0.9056E-01
      2.758  0.2431E-01  0.1044E-01  0.3468E-01  0.1520E-01  0.1648E+00  0.2002E+00  0.1243E+00  0.2936E+00  0.1291E+00
      2.878  0.3072E-01  0.2358E-01  0.4519E-01  0.3083E-01  0.1133E+00  0.2796E+00  0.1626E+00  0.2726E+00  0.2496E+00
      2.998  0.3065E-01  0.3096E-01  0.5194E-01  0.3899E-01  0.1055E+00  0.3172E+00  0.2017E+00  0.2938E+00  0.3643E+00
      3.118  0.2382E-01  0.2367E-01  0.4511E-01  0.3014E-01  0.8525E-01  0.2635E+00  0.2105E+00  0.2882E+00  0.4421E+00
      3.238  0.1919E-01  0.1795E-01  0.3955E-01  0.2238E-01  0.6034E-01  0.2174E+00  0.1679E+00  0.2503E+00  0.4503E+00
      3.357  0.1664E-01  0.1519E-01  0.3625E-01  0.1856E-01  0.4678E-01  0.1896E+00  0.1483E+00  0.2258E+00  0.4595E+00
      3.477  0.2198E-01  0.1431E-01  0.3467E-01  0.1889E-01  0.6640E-01  0.2048E+00  0.3798E+00  0.3113E+00  0.7831E+00
      3.597  0.2036E-01  0.1254E-01  0.3197E-01  0.1707E-01  0.7598E-01  0.1654E+00  0.2897E+00  0.2963E+00  0.7463E+00
      3.717  0.2205E-01  0.1174E-01  0.3150E-01  0.1572E-01  0.6214E-01  0.1462E+00  0.2666E+00  0.2702E+00  0.7848E+00
      3.837  0.1742E-01  0.9793E-02  0.2618E-01  0.1233E-01  0.5885E-01  0.1345E+00  0.2282E+00  0.2496E+00  0.5273E+00
      3.957  0.1601E-01  0.8727E-02  0.2411E-01  0.1087E-01  0.6046E-01  0.1314E+00  0.2645E+00  0.2494E+00  0.5053E+00
      4.076  0.1583E-01  0.8995E-02  0.2311E-01  0.1074E-01  0.6650E-01  0.1427E+00  0.2453E+00  0.2545E+00  0.5328E+00
      4.196  0.1488E-01  0.7558E-02  0.2036E-01  0.9339E-02  0.7695E-01  0.1322E+00  0.1901E+00  0.2616E+00  0.5063E+00
      4.316  0.1429E-01  0.6500E-02  0.1841E-01  0.8546E-02  0.9333E-01  0.1307E+00  0.1724E+00  0.3044E+00  0.5024E+00
      4.436  0.2650E-01  0.8493E-02  0.1933E-01  0.1701E-01  0.2626E+00  0.1657E+00  0.2895E+00  0.4953E+00  0.6178E+00
      4.556  0.1243E-01  0.4459E-02  0.1430E-01  0.6308E-02  0.1104E+00  0.1355E+00  0.1483E+00  0.3733E+00  0.4857E+00
      4.675  0.1222E-01  0.3962E-02  0.1287E-01  0.5927E-02  0.1249E+00  0.1397E+00  0.1542E+00  0.4156E+00  0.4585E+00
      4.795  0.1256E-01  0.3911E-02  0.1207E-01  0.5856E-02  0.1377E+00  0.1479E+00  0.1570E+00  0.4630E+00  0.4318E+00
      4.915  0.1354E-01  0.3939E-02  0.9391E-02  0.5582E-02  0.1396E+00  0.1463E+00  0.1446E+00  0.5005E+00  0.3588E+00
      5.035  0.1539E-01  0.3963E-02  0.1067E-01  0.7236E-02  0.2122E+00  0.2393E+00  0.2086E+00  0.1004E+01  0.3892E+00
      5.155  0.1595E-01  0.4148E-02  0.1081E-01  0.6929E-02  0.2384E+00  0.2755E+00  0.2382E+00  0.1127E+01  0.4249E+00
      5.275  0.1483E-01  0.4091E-02  0.9857E-02  0.5841E-02  0.1783E+00  0.2530E+00  0.1838E+00  0.9892E+00  0.3365E+00
      5.394  0.1487E-01  0.4160E-02  0.9351E-02  0.4911E-02  0.6443E-01  0.2217E+00  0.7775E-01  0.7482E+00  0.2014E+00
      5.514  0.1604E-01  0.4485E-02  0.9900E-02  0.4780E-02  0.4412E-01  0.1976E+00  0.6124E-01  0.6073E+00  0.1400E+00
      5.634  0.1702E-01  0.4725E-02  0.1017E-01  0.4154E-02  0.2935E-01  0.6018E-01  0.5183E-01  0.1688E-01  0.5568E-01
      5.754  0.1854E-01  0.5190E-02  0.1133E-01  0.4805E-02  0.2906E-01  0.6230E-01  0.4996E-01  0.1715E-01  0.5275E-01
      5.874  0.2017E-01  0.5702E-02  0.1247E-01  0.5599E-02  0.2901E-01  0.6373E-01  0.4753E-01  0.1711E-01  0.4954E-01
      5.994  0.2213E-01  0.6223E-02  0.1343E-01  0.6750E-02  0.2845E-01  0.6138E-01  0.4053E-01  0.1637E-01  0.4427E-01
      6.113  0.2355E-01  0.6653E-02  0.1448E-01  0.7494E-02  0.2871E-01  0.6041E-01  0.3830E-01  0.1556E-01  0.3936E-01
      6.233  0.2442E-01  0.7046E-02  0.1555E-01  0.8163E-02  0.2950E-01  0.5907E-01  0.3752E-01  0.1451E-01  0.3426E-01
      6.353  0.2538E-01  0.7447E-02  0.1647E-01  0.8865E-02  0.3025E-01  0.5835E-01  0.3690E-01  0.1452E-01  0.3308E-01
      6.473  0.2634E-01  0.7848E-02  0.1741E-01  0.9565E-02  0.3094E-01  0.5761E-01  0.3625E-01  0.1451E-01  0.3187E-01
      6.593  0.2730E-01  0.8249E-02  0.1838E-01  0.1026E-01  0.3158E-01  0.5684E-01  0.3558E-01  0.1447E-01  0.3063E-01
      6.713  0.2825E-01  0.8652E-02  0.1937E-01  0.1096E-01  0.3217E-01  0.5603E-01  0.3488E-01  0.1441E-01  0.2938E-01
      6.832  0.2920E-01  0.9055E-02  0.2040E-01  0.1165E-01  0.3270E-01  0.5520E-01  0.3416E-01  0.1433E-01  0.2810E-01
      6.952  0.3015E-01  0.9458E-02  0.2145E-01  0.1235E-01  0.3318E-01  0.5434E-01  0.3341E-01  0.1422E-01  0.2680E-01
      7.072  0.3109E-01  0.9863E-02  0.2254E-01  0.1304E-01  0.3360E-01  0.5345E-01  0.3263E-01  0.1408E-01  0.2548E-01
      7.192  0.3388E-01  0.1232E-01  0.2579E-01  0.1644E-01  0.3800E-01  0.5152E-01  0.3396E-01  0.1434E-01  0.2371E-01
      7.312  0.3426E-01  0.1092E-01  0.2552E-01  0.1412E-01  0.3317E-01  0.4803E-01  0.3039E-01  0.1301E-01  0.1859E-01
      7.432  0.3513E-01  0.1101E-01  0.2661E-01  0.1418E-01  0.3249E-01  0.4731E-01  0.2993E-01  0.1287E-01  0.1719E-01
      7.551  0.3596E-01  0.1108E-01  0.2770E-01  0.1421E-01  0.3177E-01  0.4668E-01  0.2946E-01  0.1272E-01  0.1585E-01
      7.671  0.3676E-01  0.1113E-01  0.2878E-01  0.1420E-01  0.3098E-01  0.4613E-01  0.2898E-01  0.1255E-01  0.1458E-01
      7.791  0.3747E-01  0.1116E-01  0.2984E-01  0.1416E-01  0.3013E-01  0.4570E-01  0.2846E-01  0.1236E-01  0.1348E-01
      7.911  0.3805E-01  0.1114E-01  0.3083E-01  0.1410E-01  0.2920E-01  0.4543E-01  0.2787E-01  0.1209E-01  0.1273E-01
      8.031  0.3865E-01  0.1110E-01  0.3180E-01  0.1403E-01  0.2826E-01  0.4519E-01  0.2726E-01  0.1183E-01  0.1203E-01
      8.150  0.3927E-01  0.1103E-01  0.3274E-01  0.1394E-01  0.2731E-01  0.4496E-01  0.2663E-01  0.1156E-01  0.1136E-01
      8.270  0.3991E-01  0.1093E-01  0.3364E-01  0.1383E-01  0.2636E-01  0.4475E-01  0.2598E-01  0.1130E-01  0.1075E-01
      8.390  0.4057E-01  0.1082E-01  0.3452E-01  0.1371E-01  0.2539E-01  0.4455E-01  0.2532E-01  0.1104E-01  0.1017E-01
      8.510  0.4199E-01  0.1068E-01  0.3958E-01  0.1358E-01  0.2442E-01  0.4560E-01  0.2488E-01  0.1128E-01  0.9631E-02
      8.630  0.4276E-01  0.1051E-01  0.4006E-01  0.1344E-01  0.2345E-01  0.4541E-01  0.2423E-01  0.1113E-01  0.9135E-02
      8.750  0.4582E-01  0.1111E-01  0.4159E-01  0.1430E-01  0.2291E-01  0.4745E-01  0.2409E-01  0.1161E-01  0.9563E-02
      8.869  0.4748E-01  0.1100E-01  0.4207E-01  0.1421E-01  0.2158E-01  0.4757E-01  0.2309E-01  0.1147E-01  0.9287E-02
      8.989  0.4912E-01  0.1089E-01  0.4251E-01  0.1416E-01  0.2037E-01  0.4761E-01  0.2215E-01  0.1133E-01  0.9002E-02
      9.109  0.5074E-01  0.1078E-01  0.4291E-01  0.1413E-01  0.1928E-01  0.4755E-01  0.2125E-01  0.1119E-01  0.8708E-02
      9.229  0.5233E-01  0.1066E-01  0.4326E-01  0.1412E-01  0.1831E-01  0.4741E-01  0.2041E-01  0.1106E-01  0.8406E-02
      9.349  0.5542E-01  0.1076E-01  0.4427E-01  0.1453E-01  0.1791E-01  0.4837E-01  0.2026E-01  0.1107E-01  0.8229E-02
      9.469  0.5813E-01  0.1065E-01  0.4467E-01  0.1488E-01  0.1767E-01  0.4853E-01  0.1988E-01  0.1100E-01  0.7996E-02
      9.588  0.5973E-01  0.1019E-01  0.4408E-01  0.1500E-01  0.1741E-01  0.4726E-01  0.1893E-01  0.1080E-01  0.7642E-02
      9.708  0.6023E-01  0.9392E-02  0.4248E-01  0.1490E-01  0.1712E-01  0.4457E-01  0.1741E-01  0.1045E-01  0.7167E-02
      9.828  0.5963E-01  0.8252E-02  0.3989E-01  0.1458E-01  0.1680E-01  0.4045E-01  0.1534E-01  0.9969E-02  0.6569E-02
      9.948  0.5948E-01  0.7610E-02  0.3848E-01  0.1453E-01  0.1663E-01  0.3797E-01  0.1419E-01  0.9594E-02  0.6206E-02
     10.068  0.5925E-01  0.7018E-02  0.3726E-01  0.1448E-01  0.1645E-01  0.3574E-01  0.1315E-01  0.9239E-02  0.5875E-02
     10.188  0.5893E-01  0.6457E-02  0.3616E-01  0.1440E-01  0.1626E-01  0.3368E-01  0.1219E-01  0.8898E-02  0.5570E-02
     10.307  0.6348E-01  0.6051E-02  0.3632E-01  0.1556E-01  0.1744E-01  0.3341E-01  0.1164E-01  0.8896E-02  0.5662E-02
     10.427  0.6581E-01  0.5660E-02  0.3652E-01  0.1609E-01  0.1830E-01  0.3207E-01  0.1092E-01  0.8929E-02  0.5561E-02
     10.547  0.7015E-01  0.5366E-02  0.3606E-01  0.1705E-01  0.2025E-01  0.2970E-01  0.1019E-01  0.9255E-02  0.5393E-02
     10.667  0.6519E-01  0.4627E-02  0.3195E-01  0.1621E-01  0.1892E-01  0.2614E-01  0.8895E-02  0.8386E-02  0.5109E-02
     10.787  0.6043E-01  0.3946E-02  0.2807E-01  0.1543E-01  0.1766E-01  0.2279E-01  0.7687E-02  0.7551E-02  0.4844E-02
     10.907  0.5587E-01  0.3322E-02  0.2439E-01  0.1470E-01  0.1646E-01  0.1965E-01  0.6566E-02  0.6750E-02  0.4598E-02
     11.026  0.5151E-01  0.2757E-02  0.2094E-01  0.1402E-01  0.1532E-01  0.1673E-01  0.5533E-02  0.5983E-02  0.4371E-02
     11.146  0.4735E-01  0.2249E-02  0.1769E-01  0.1339E-01  0.1426E-01  0.1402E-01  0.4588E-02  0.5251E-02  0.4163E-02
     11.266  0.4338E-01  0.1799E-02  0.1467E-01  0.1280E-01  0.1326E-01  0.1153E-01  0.3731E-02  0.4553E-02  0.3974E-02
     11.386  0.3961E-01  0.1407E-02  0.1186E-01  0.1227E-01  0.1232E-01  0.9254E-02  0.2961E-02  0.3889E-02  0.3804E-02
     11.506  0.1071E+00  0.5751E-02  0.1237E-01  0.1864E-01  0.3174E-01  0.2209E-01  0.2989E-02  0.2054E-01  0.4958E-02
     11.626  0.8136E-01  0.5994E-02  0.1145E-01  0.1703E-01  0.2407E-01  0.1628E-01  0.2801E-02  0.1482E-01  0.4358E-02
     11.745  0.7855E-01  0.6730E-02  0.1057E-01  0.1669E-01  0.2320E-01  0.1522E-01  0.2624E-02  0.1467E-01  0.4053E-02
     11.865  0.6053E-01  0.7226E-02  0.9076E-02  0.9838E-02  0.1658E-01  0.1310E-01  0.2294E-02  0.1411E-01  0.1671E-02
     11.985  0.6317E-01  0.8173E-02  0.1069E-01  0.1103E-01  0.1724E-01  0.1373E-01  0.2746E-02  0.1454E-01  0.1847E-02
     12.105  0.6542E-01  0.9087E-02  0.1227E-01  0.1219E-01  0.1777E-01  0.1429E-01  0.3199E-02  0.1486E-01  0.2023E-02
     12.225  0.6728E-01  0.9978E-02  0.1386E-01  0.1332E-01  0.1817E-01  0.1476E-01  0.3659E-02  0.1508E-01  0.2199E-02
     12.344  0.7167E-01  0.1173E-01  0.1756E-01  0.1556E-01  0.1917E-01  0.1579E-01  0.4671E-02  0.1554E-01  0.2440E-02
     12.464  0.7581E-01  0.1345E-01  0.2125E-01  0.1782E-01  0.2002E-01  0.1679E-01  0.5714E-02  0.1593E-01  0.2686E-02
     12.584  0.7970E-01  0.1513E-01  0.2493E-01  0.2007E-01  0.2075E-01  0.1776E-01  0.6789E-02  0.1624E-01  0.2939E-02
     12.704  0.8335E-01  0.1677E-01  0.2861E-01  0.2233E-01  0.2134E-01  0.1871E-01  0.7896E-02  0.1647E-01  0.3199E-02
     12.824  0.8674E-01  0.1838E-01  0.3227E-01  0.2460E-01  0.2180E-01  0.1964E-01  0.9034E-02  0.1662E-01  0.3464E-02
     12.944  0.8994E-01  0.1995E-01  0.3593E-01  0.2687E-01  0.2214E-01  0.2055E-01  0.1020E-01  0.1672E-01  0.3736E-02
     13.063  0.9319E-01  0.2150E-01  0.3960E-01  0.2916E-01  0.2242E-01  0.2153E-01  0.1141E-01  0.1682E-01  0.4015E-02
     13.183  0.1041E+00  0.2511E-01  0.5108E-01  0.3800E-01  0.2426E-01  0.2685E-01  0.1596E-01  0.1838E-01  0.4809E-02
     13.303  0.1179E+00  0.2921E-01  0.6351E-01  0.5002E-01  0.2716E-01  0.3272E-01  0.2100E-01  0.1953E-01  0.5529E-02
     13.423  0.1266E+00  0.2972E-01  0.5766E-01  0.5193E-01  0.2785E-01  0.2804E-01  0.1913E-01  0.1710E-01  0.6706E-02
     13.543  0.1261E+00  0.2921E-01  0.5375E-01  0.4865E-01  0.2639E-01  0.2532E-01  0.1778E-01  0.1618E-01  0.6996E-02