    1    1    1    1
  0.1510406E+02  0.2774616E-09  0.2774616E-09  0.2774616E-09  0.5000000E-15
   1.0000000000000000E-004
  CAR 
 Au, FCC                                 
   11   28    9

  0.8333333E-01  0.8333333E-01  0.8333333E-01  0.9259259E-02
   1       -3.5164
   2        1.8568
   3        2.0515
   4        2.0515
   5        3.7852
   6        3.7852
   7       23.0866
   8       25.7270
   9       27.6867

  0.2500000E+00  0.8333333E-01  0.8333333E-01  0.2777778E-01
   1       -2.2261
   2        1.4855
   3        2.3572
   4        2.4335
   5        3.4315
   6        4.1987
   7       21.8345
   8       24.0217
   9       27.0784

  0.4166667E+00  0.8333333E-01  0.8333333E-01  0.2777778E-01
   1       -0.9393
   2        1.9675
   3        2.2066
   4        2.8228
   5        4.4415
   6        5.6314
   7       15.1279
   8       22.8971
   9       25.3626

 -0.4166667E+00  0.8333333E-01  0.8333333E-01  0.2777778E-01
   1       -0.9288
   2        1.7566
   3        2.0800
   4        4.0369
   5        5.3296
   6        7.0874
   7       11.4111
   8       22.3182
   9       25.3444

 -0.2500000E+00  0.8333333E-01  0.8333333E-01  0.2777778E-01
   1       -1.1408
   2        1.8882
   3        2.1173
   4        2.3835
   5        4.4324
   6        4.7222
   7       17.4125
   8       23.6274
   9       26.3437

 -0.8333333E-01  0.8333333E-01  0.8333333E-01  0.2777778E-01
   1       -2.8295
   2        1.5288
   3        2.3382
   4        2.3495
   5        3.4266
   6        4.0031
   7       23.6436
   8       24.2396
   9       27.0459

  0.2500000E+00  0.2500000E+00  0.8333333E-01  0.2777778E-01
   1       -1.6291
   2        0.9542
   3        2.5176
   4        2.9224
   5        3.4264
   6        4.3904
   7       22.4149
   8       24.9419
   9       25.0267

  0.4166667E+00  0.2500000E+00  0.8333333E-01  0.5555556E-01
   1       -0.2243
   2        0.7532
   3        1.8989
   4        3.4470
   5        4.4639
   6        5.9356
   7       17.9070
   8       21.4865
   9       23.3222

 -0.4166667E+00  0.2500000E+00  0.8333333E-01  0.5555556E-01
   1       -0.0039
   2        1.1340
   3        2.3436
   4        3.0368
   5        5.1996
   6        9.8314
   7       11.5404
   8       20.5672
   9       21.8828

 -0.2500000E+00  0.2500000E+00  0.8333333E-01  0.5555556E-01
   1        0.1968
   2        1.3893
   3        1.5040
   4        3.1668
   5        4.2450
   6        7.2935
   7       15.8676
   8       19.6865
   9       23.7921

 -0.8333333E-01  0.2500000E+00  0.8333333E-01  0.5555556E-01
   1       -1.1802
   2        1.1704
   3        2.1862
   4        2.8123
   5        3.6000
   6        4.8942
   7       19.9242
   8       23.3002
   9       25.9052

  0.4166667E+00  0.4166667E+00  0.8333333E-01  0.2777778E-01
   1       -0.5466
   2       -0.1373
   3        3.8688
   4        4.5079
   5        5.3014
   6        6.2019
   7       17.7231
   8       19.6776
   9       20.0069

 -0.4166667E+00  0.4166667E+00  0.8333333E-01  0.5555556E-01
   1       -0.3515
   2        0.0553
   3        3.3956
   4        4.5252
   5        5.5457
   6       10.2309
   7       13.8426
   8       16.8743
   9       18.8664

 -0.2500000E+00  0.4166667E+00  0.8333333E-01  0.5555556E-01
   1        0.3172
   2        1.0266
   3        1.9982
   4        3.5544
   5        5.0012
   6       10.5408
   7       13.1169
   8       16.8680
   9       21.5465

 -0.8333333E-01  0.4166667E+00  0.8333333E-01  0.5555556E-01
   1       -0.5332
   2        1.5860
   3        2.4296
   4        2.8115
   5        5.0170
   6        7.2293
   7       13.1516
   8       22.4401
   9       23.5460

 -0.4166667E+00 -0.4166667E+00  0.8333333E-01  0.2777778E-01
   1       -0.7707
   2       -0.4059
   3        4.8922
   4        5.0348
   5        5.6053
   6        8.4445
   7       14.6863
   8       17.7039
   9       18.6196

 -0.2500000E+00 -0.4166667E+00  0.8333333E-01  0.5555556E-01
   1       -0.1409
   2        0.3196
   3        2.5449
   4        4.1875
   5        5.1739
   6        7.7602
   7       15.8218
   8       19.2361
   9       20.3453

 -0.2500000E+00 -0.2500000E+00  0.8333333E-01  0.2777778E-01
   1       -0.5951
   2        0.3492
   3        2.6504
   4        3.6998
   5        4.4803
   6        4.8592
   7       20.4130
   8       22.3488
   9       23.2434

  0.2500000E+00  0.2500000E+00  0.2500000E+00  0.9259259E-02
   1       -1.8182
   2        1.7766
   3        2.2912
   4        2.2912
   5        4.0234
   6        4.0234
   7       19.5824
   8       23.9757
   9       29.1639

  0.4166667E+00  0.2500000E+00  0.2500000E+00  0.2777778E-01
   1       -0.4791
   2        1.3967
   3        2.0126
   4        2.7578
   5        3.6077
   6        5.9512
   7       17.7351
   8       21.5403
   9       25.3016

 -0.4166667E+00  0.2500000E+00  0.2500000E+00  0.2777778E-01
   1        0.3078
   2        1.3116
   3        1.9660
   4        3.1290
   5        4.4485
   6        8.7026
   7       14.3581
   8       17.9929
   9       24.9786

 -0.2500000E+00  0.2500000E+00  0.2500000E+00  0.2777778E-01
   1       -0.1677
   2        0.8837
   3        2.3583
   4        3.3920
   5        5.4280
   6        8.6285
   7       13.3797
   8       20.0517
   9       22.0478

  0.4166667E+00  0.4166667E+00  0.2500000E+00  0.2777778E-01
   1       -0.4732
   2        1.4888
   3        1.9582
   4        2.7719
   5        5.2581
   6        6.1011
   7       15.3019
   8       23.0425
   9       23.8141

 -0.4166667E+00  0.4166667E+00  0.2500000E+00  0.5555556E-01
   1        0.5381
   2        0.9073
   3        1.5486
   4        3.7059
   5        4.9879
   6        9.2618
   7       14.3393
   8       17.9832
   9       20.7757

 -0.2500000E+00  0.4166667E+00  0.2500000E+00  0.5555556E-01
   1        0.3056
   2        0.8210
   3        1.9451
   4        3.7903
   5        5.5224
   6       11.7961
   7       13.3765
   8       15.9928
   9       18.5957

 -0.4166667E+00 -0.4166667E+00  0.2500000E+00  0.2777778E-01
   1       -0.1860
   2        0.5775
   3        2.8690
   4        4.0292
   5        5.2302
   6       11.4211
   7       12.2235
   8       16.5551
   9       21.1696

  0.4166667E+00  0.4166667E+00  0.4166667E+00  0.9259259E-02
   1       -1.1270
   2        1.9650
   3        1.9650
   4        4.6170
   5        5.1016
   6        5.1016
   7       12.9220
   8       22.3275
   9       26.6770

 -0.4166667E+00  0.4166667E+00  0.4166667E+00  0.2777778E-01
   1       -0.3795
   2        1.4372
   3        2.5215
   4        3.0062
   5        5.0378
   6        8.7385
   7       11.5721
   8       21.3440
   9       24.1125
