Automatically generated mesh
      28
Reciprocal lattice
    0.08333333333333    0.08333333333333    0.08333333333333            96
    0.25000000000000    0.08333333333333    0.08333333333333           288
    0.41666666666667    0.08333333333333    0.08333333333333           288
   -0.41666666666667    0.08333333333333    0.08333333333333           288
   -0.25000000000000    0.08333333333333    0.08333333333333           288
   -0.08333333333333    0.08333333333333    0.08333333333333           288
    0.25000000000000    0.25000000000000    0.08333333333333           288
    0.41666666666667    0.25000000000000    0.08333333333333           576
   -0.41666666666667    0.25000000000000    0.08333333333333           576
   -0.25000000000000    0.25000000000000    0.08333333333333           576
   -0.08333333333333    0.25000000000000    0.08333333333333           576
    0.41666666666667    0.41666666666667    0.08333333333333           288
   -0.41666666666667    0.41666666666667    0.08333333333333           576
   -0.25000000000000    0.41666666666667    0.08333333333333           576
   -0.08333333333333    0.41666666666667    0.08333333333333           576
   -0.41666666666667   -0.41666666666667    0.08333333333333           288
   -0.25000000000000   -0.41666666666667    0.08333333333333           576
   -0.25000000000000   -0.25000000000000    0.08333333333333           288
    0.25000000000000    0.25000000000000    0.25000000000000            96
    0.41666666666667    0.25000000000000    0.25000000000000           288
   -0.41666666666667    0.25000000000000    0.25000000000000           288
   -0.25000000000000    0.25000000000000    0.25000000000000           288
    0.41666666666667    0.41666666666667    0.25000000000000           288
   -0.41666666666667    0.41666666666667    0.25000000000000           576
   -0.25000000000000    0.41666666666667    0.25000000000000           576
   -0.41666666666667   -0.41666666666667    0.25000000000000           288
    0.41666666666667    0.41666666666667    0.41666666666667            96
   -0.41666666666667    0.41666666666667    0.41666666666667           288
Tetrahedra
       403    0.00009645061728
        24         1         2         6        19
        24         2         5         6        11
        24         5         6         7        11
        24         2         5         6        19
        24         7         8        11        23
        24         7         8        18        23
        24         5         7        11        23
        24         8        17        18        22
        24        12        17        18        22
        24         8        18        22        23
        24        12        13        17        26
        24        12        13        16        26
        24        12        17        22        26
        24        13        13        16        26
        24        13        16        16        26
        24        13        16        26        26
        24        13        16        17        22
        24        12        16        17        22
        24        13        16        22        26
        24         8        12        17        23
        24         8        12        18        23
        24        12        17        22        23
        24         5         8        11        18
        24         5         7        11        18
        24         5         8        18        23
        24         2         7        11        19
        24         2         6         7        19
        24         5         7        11        19
        36         2         2         6         6
        48         1         2         6         6
        24         2         2         6        19
        24         1         1         2         6
        24         1         2         2         6
        24         2         3        11        20
        24         2         3         5        11
        24         2         3         5        19
        24        10        11        15        20
        24         8        10        11        15
        24         8        11        15        23
        24         3        11        15        20
        24         3         5        11        15
        24         5        11        15        23
        24         8         9        10        24
        24         8         9        17        24
        24         8         9        17        22
        24         8         9        10        15
        24         8         9        15        23
        24         8         9        22        23
        24        14        17        24        25
        24        13        14        17        25
        24        13        14        17        26
        24         9        14        17        24
        24         9        14        17        22
        24        14        17        22        26
        24        13        14        25        25
        24        13        13        14        25
        24        13        13        14        26
        24        13        14        14        25
        24        13        14        14        26
        24        13        14        26        26
        24         9        13        24        25
        24         9        13        17        24
        24         9        13        17        22
        24         9        13        14        25
        24         9        13        14        26
        24         9        13        22        26
        24        10        15        17        24
        24         8        10        15        17
        24         8        15        17        23
        24         9        15        17        24
        24         9        15        17        22
        24        15        17        22        23
        24         3         8        10        20
        24         3         8        11        20
        24         3         5         8        11
        24         3         8        10        15
        24         3         8        15        23
        24         3         5         8        23
        24         5        11        11        20
        48         2         5        11        11
        48         2         5        11        19
        24         3         5        11        20
        24         3         5         5        11
        24         5         5        11        19
        48         2         7        11        11
        24         2         6         7        11
        48         2         2         6        11
        24         2         2        11        19
        24         6         7         7        11
        24         6         6         7        11
        24         2         6         6        11
        24         6         7        11        11
        24         2         6        11        11
        24        10        20        21        28
        24        10        15        20        28
        24         3        15        20        28
        24         9        10        14        21
        24         9        10        14        24
        24         9         9        10        24
        24         9        10        21        28
        24         9        10        15        28
        24         9         9        10        15
        72        14        24        24        25
        36        24        24        25        25
        24         9        14        24        24
        12         9         9        24        24
        48        24        25        25        25
        48        14        24        25        25
        72        14        14        24        25
        24         9        14        25        25
        48         9        14        24        25
        24         9         9        24        25
        24         9        24        25        25
        24         9         9        14        25
        24        14        21        24        28
        24        10        21        24        28
        24        10        15        24        28
        24         9        14        24        28
        24         9         9        24        28
        24         9        15        24        28
        24        10        10        15        21
        24        10        10        15        20
        24         3        10        15        20
        24        10        15        21        28
        24        10        15        15        28
        24         3        10        15        15
        24         8        10        20        23
        24         8        11        20        23
        24         5        11        20        23
        24        10        15        20        23
        24         3        15        20        23
        24         3         5        20        23
        48         8         8        11        18
        24         7         8        11        18
        48         7         8        11        11
        24         8         8        11        23
        24         5         8        11        23
        24         5         8        11        11
        24         7         8        18        18
        24         7         7         8        18
        24         7         7         8        11
        24         7         8         8        18
        24         7         8         8        11
        24        14        21        22        26
        24         9        14        21        22
        24         9        21        22        28
        24        13        13        17        25
        24        13        17        25        25
        24        17        24        25        25
        24        13        17        17        25
        24        17        17        24        25
        24        17        24        24        25
        24        13        22        25        26
        24        14        22        25        26
        24         9        14        22        25
        24        13        17        22        25
        24        17        22        24        25
        24         9        22        24        25
        24         9        14        14        26
        24         9        14        14        21
        24         9        14        21        28
        24         9        14        22        26
        24         9         9        14        22
        24         9         9        14        28
        24         9        14        21        24
        24         9        10        21        24
        24         9        10        15        21
        24         9         9        14        21
        24         9         9        21        28
        24         9        15        21        28
        24        10        17        22        24
        24         8        10        17        22
        24         8        10        22        23
        24         9        10        22        24
        24         9        10        15        22
        24        10        15        22        23
        48         8        12        17        17
        24         8        12        17        18
        48         8         8        17        18
        24         8        17        17        22
        24         8        17        22        23
        24         8         8        17        23
        24        12        12        17        18
        24        12        17        18        18
        24         8        17        18        18
        24        12        17        17        18
        24         8        17        17        18
        24        12        13        16        16
        24        12        13        13        16
        24        12        13        13        17
        24        12        12        13        16
        24        12        12        13        17
        48        12        13        17        17
        48        13        13        16        17
        24        13        13        17        26
        24        13        17        22        26
        24        12        13        16        17
        24        13        17        17        22
        24        13        24        25        26
        24        14        24        25        26
        24         9        14        24        26
        24        13        17        24        26
        24        17        22        24        26
        24         9        22        24        26
        36        14        14        25        25
        24         9        14        14        24
        12         9         9        14        14
        24        12        16        16        16
        24        12        12        16        16
        24        12        12        12        16
        24        13        16        16        17
        24        13        16        17        17
        24        12        16        16        17
        24        12        12        16        17
        24        12        16        17        17
        24        13        13        24        25
        24        13        24        25        25
        24        13        24        24        25
        24        13        13        17        24
        24        13        17        17        24
        24        13        17        24        24
        48        14        25        25        25
        24        13        25        25        26
        24        13        13        25        26
        24        13        25        26        26
        24        14        25        25        26
        24        14        14        25        26
        24        14        25        26        26
        72        13        13        13        16
        60        13        13        16        16
        24        13        13        13        26
        12        13        13        26        26
        48        13        16        16        16
        24        14        21        26        28
        24         9        14        26        28
        24         9        22        26        28
        24        10        14        15        21
        24        10        14        15        24
        24         9        14        15        24
        24        14        15        21        28
        24         9        14        15        28
        24         9         9        14        15
        24         8        10        23        24
        24         8        17        23        24
        24        17        22        23        24
        24        10        15        23        24
        24         9        15        23        24
        24         9        22        23        24
        24         8        12        18        18
        24         8        12        12        18
        24         8        12        12        17
        24         8         8        12        18
        24         8         8        12        17
        24         3        10        20        21
        24         3        10        15        21
        24         3        15        21        28
        24         5        10        11        20
        24         5         8        10        11
        24         5         8        10        23
        24         3         5        10        20
        24         3         5        10        15
        24         5        10        15        23
        24         7         7        11        18
        24         7        11        18        18
        24         8        11        18        18
        24         7        11        11        18
        24         8        11        11        18
        24         2        11        19        20
        24         5        11        19        20
        24         3         5        19        20
        24         2         6         6         7
        24         2         6         7         7
        24         2         7         7        11
        24         2         2         6         7
        24         2         2         7        11
        36         1         1         6         6
        48         1         6         6         6
        24         2         6         6         6
        24         1         1         1         6
        24         3         5        19        27
        24         3         4         5        15
        24         4         5        15        23
        24         3         4         5        27
        24         9        15        23        28
        24         9        22        23        28
        24         4        15        23        28
        24        14        14        21        26
        24        14        21        26        26
        24        14        21        21        26
        24         4         9        15        22
        24         4        15        22        23
        24         4         9        22        28
        24         3        15        23        27
        24         3         5        23        27
        24         4        15        23        27
        24         3         3         5         5
        24         3         5         5        19
        24         3         3         5        27
        24         2        11        11        20
        24         2         2        11        20
        24         2        11        20        20
        24         3         4        15        28
        24         3         4         4        15
        24         3         4         4        27
        24         9        15        15        28
        12         9         9        15        15
        48         4        15        15        28
        12         4         4        15        15
        24        10        14        24        24
        24        10        14        14        24
        24        10        14        14        21
        24        10        10        14        24
        24        10        10        14        21
        24        10        14        21        21
        24         4         9         9        28
        72         4         9        15        28
        24         4         4         9        15
        24         4         9         9        15
        24         4         4         9        28
        48         3         4        15        15
        48         3         4        15        27
        24         4         4        15        28
        24         4         4         4        15
        24         4         4        15        27
        24         3        15        15        23
        24         3         5        15        23
        24         3         3         5        15
        24         3         3        15        27
        24         8         8        10        11
        24         8        10        11        11
        24        10        11        11        20
        24         8        10        10        11
        24        10        10        11        20
        24        10        11        20        20
        24         8        17        17        24
        24         8        17        24        24
        24         8        10        24        24
        24         8         8        17        24
        24         8         8        10        24
        24         8        10        10        24
        24         9         9        15        22
        24         9         9        15        28
        24         9        15        22        23
        24         9        15        15        23
        24         4         9        15        15
        12         9         9        28        28
        24         9        15        28        28
        24         4        15        28        28
        12         4         4        28        28
        24        12        12        12        18
        24        12        12        18        18
        24        12        18        18        18
        24        10        17        17        24
        24        10        17        24        24
        24        10        10        17        24
        24         8        10        17        17
        24         8         8        10        17
        24         8        10        10        17
        24        14        21        24        24
        24        14        14        21        24
        24        14        21        21        24
        24        10        21        24        24
        24        10        10        21        24
        24        10        21        21        24
        24        14        14        14        26
        12        14        14        26        26
        24        14        14        14        21
        12        14        14        21        21
        48        13        13        13        25
        48        13        13        25        25
        48        13        25        25        25
        24         3        15        27        28
        24         4        15        27        28
        24         4         4        27        28
        24         8        11        11        20
        24         8         8        11        20
        24         8         8        10        20
        24         8        11        20        20
        24         8        10        20        20
        24         8        10        10        20
        12         2         2        11        11
        24         2        11        11        11
        24        11        11        11        20
        12        11        11        20        20
        24         6         6         6         7
        24         6         6         7         7
        24         6         7         7         7
        12         4         4        27        27
        24        10        10        20        21
        24        10        20        21        21
        24        10        20        20        21
        12         4         4         4         4
        24         4         4         4        27
        24         7        18        18        18
        24         7         7        18        18
        24         7         7         7        18
        24        10        10        10        21
        12        10        10        21        21
        24        10        10        10        20
        12        10        10        20        20
        72        25        25        25        25
        12         1         1         1         1
        36        16        16        16        16
