       N       E                     dE             d eps       ncg     rms          rms(c)
DAV:   1     0.419438167750E+02    0.41944E+02   -0.47655E+03   600   0.831E+02

DAV:   2    -0.253775805337E+01   -0.44482E+02   -0.42016E+02   517   0.204E+02

DAV:   3    -0.310709448033E+01   -0.56934E+00   -0.56917E+00   597   0.277E+01

DAV:   4    -0.310872529937E+01   -0.16308E-02   -0.16306E-02   596   0.137E+00

DAV:   5    -0.310873668987E+01   -0.11390E-04   -0.11384E-04   551   0.109E-01    0.293E+00
RMM:   6    -0.289348287973E+01    0.21525E+00   -0.31024E-01   506   0.782E+00    0.927E-01
RMM:   7    -0.286396876190E+01    0.29514E-01   -0.38850E-02   530   0.236E+00    0.253E-01
RMM:   8    -0.285918872243E+01    0.47800E-02   -0.14507E-03   541   0.681E-01    0.104E-02
RMM:   9    -0.285919728179E+01   -0.85594E-05   -0.19720E-05   322   0.610E-02

   1 F= -.28591973E+01 E0= -.28591973E+01  d E =0.000000E+00

