PROCAR lm decomposed
# of k-points:   28         # of bands:   9         # of ions:   1

 k-point    1 :    0.08333333 0.08333333 0.08333333     weight = 0.00925926

band   1 # energy   -3.51637630 # occ.  2.00000000

ion      s     py     pz     px    dxy    dyz    dz2    dxz    dx2    tot
  1  0.675  0.004  0.004  0.004  0.000  0.000  0.000  0.000  0.000  0.688

band   2 # energy    1.85682651 # occ.  2.00000000

ion      s     py     pz     px    dxy    dyz    dz2    dxz    dx2    tot
  1  0.000  0.001  0.001  0.001  0.312  0.312  0.000  0.312  0.000  0.939

band   3 # energy    2.05154586 # occ.  2.00000000

ion      s     py     pz     px    dxy    dyz    dz2    dxz    dx2    tot
  1  0.000  0.000  0.000  0.000  0.459  0.000  0.003  0.482  0.001  0.945

band   4 # energy    2.05154617 # occ.  2.00000000

ion      s     py     pz     px    dxy    dyz    dz2    dxz    dx2    tot
  1  0.000  0.000  0.000  0.000  0.169  0.627  0.001  0.145  0.003  0.945

band   5 # energy    3.78518501 # occ.  2.00000000

ion      s     py     pz     px    dxy    dyz    dz2    dxz    dx2    tot
  1  0.000  0.000  0.000  0.000  0.001  0.002  0.219  0.001  0.746  0.969

band   6 # energy    3.78518516 # occ.  2.00000000

ion      s     py     pz     px    dxy    dyz    dz2    dxz    dx2    tot
  1  0.000  0.000  0.000  0.000  0.002  0.000  0.746  0.002  0.219  0.969

band   7 # energy   23.08662982 # occ.  0.00000000

ion      s     py     pz     px    dxy    dyz    dz2    dxz    dx2    tot
  1  0.000  0.001  0.001  0.001  0.013  0.013  0.000  0.013  0.000  0.040

band   8 # energy   25.72699804 # occ.  0.00000000

ion      s     py     pz     px    dxy    dyz    dz2    dxz    dx2    tot
  1  0.026  0.052  0.052  0.052  0.011  0.011  0.000  0.011  0.000  0.216

band   9 # energy   27.68671986 # occ.  0.00000000

ion      s     py     pz     px    dxy    dyz    dz2    dxz    dx2    tot
  1  0.000  0.118  0.033  0.028  0.003  0.002  0.005  0.010  0.012  0.211


 k-point    2 :    0.25000000 0.08333333 0.08333333     weight = 0.02777778

band   1 # energy   -2.22610500 # occ.  2.00000000

ion      s     py     pz     px    dxy    dyz    dz2    dxz    dx2    tot
  1  0.591  0.032  0.032  0.003  0.005  0.026  0.001  0.005  0.002  0.697

band   2 # energy    1.48548681 # occ.  2.00000000

ion      s     py     pz     px    dxy    dyz    dz2    dxz    dx2    tot
  1  0.006  0.003  0.003  0.016  0.433  0.016  0.000  0.433  0.000  0.912

band   3 # energy    2.35715440 # occ.  2.00000000

ion      s     py     pz     px    dxy    dyz    dz2    dxz    dx2    tot
  1  0.003  0.006  0.006  0.000  0.009  0.691  0.053  0.009  0.159  0.936

band   4 # energy    2.43345707 # occ.  2.00000000

ion      s     py     pz     px    dxy    dyz    dz2    dxz    dx2    tot
  1  0.000  0.000  0.000  0.000  0.431  0.000  0.062  0.431  0.021  0.945

band   5 # energy    3.43152782 # occ.  2.00000000

ion      s     py     pz     px    dxy    dyz    dz2    dxz    dx2    tot
  1  0.000  0.001  0.001  0.000  0.042  0.000  0.650  0.042  0.217  0.952

band   6 # energy    4.19869476 # occ.  2.00000000

ion      s     py     pz     px    dxy    dyz    dz2    dxz    dx2    tot
  1  0.006  0.002  0.002  0.000  0.003  0.200  0.187  0.003  0.560  0.964

band   7 # energy   21.83449549 # occ.  0.00000000

ion      s     py     pz     px    dxy    dyz    dz2    dxz    dx2    tot
  1  0.088  0.083  0.083  0.054  0.040  0.078  0.003  0.040  0.010  0.479

band   8 # energy   24.02174990 # occ.  0.00000000

ion      s     py     pz     px    dxy    dyz    dz2    dxz    dx2    tot
  1  0.003  0.002  0.002  0.055  0.102  0.000  0.002  0.102  0.005  0.275

band   9 # energy   27.07840185 # occ.  0.00000000

ion      s     py     pz     px    dxy    dyz    dz2    dxz    dx2    tot
  1  0.002  0.021  0.021  0.237  0.023  0.042  0.003  0.023  0.009  0.380


 k-point    3 :    0.41666667 0.08333333 0.08333333     weight = 0.02777778

band   1 # energy   -0.93933274 # occ.  2.00000000

ion      s     py     pz     px    dxy    dyz    dz2    dxz    dx2    tot
  1  0.281  0.016  0.016  0.000  0.157  0.180  0.000  0.157  0.001  0.807

band   2 # energy    1.96749044 # occ.  2.00000000

ion      s     py     pz     px    dxy    dyz    dz2    dxz    dx2    tot
  1  0.001  0.000  0.000  0.003  0.081  0.303  0.115  0.081  0.344  0.930

band   3 # energy    2.20655438 # occ.  2.00000000

ion      s     py     pz     px    dxy    dyz    dz2    dxz    dx2    tot
  1  0.000  0.000  0.000  0.000  0.199  0.000  0.403  0.199  0.134  0.935

band   4 # energy    2.82284538 # occ.  2.00000000

ion      s     py     pz     px    dxy    dyz    dz2    dxz    dx2    tot
  1  0.102  0.071  0.071  0.069  0.172  0.000  0.032  0.172  0.095  0.784

band   5 # energy    4.44152200 # occ.  2.00000000

ion      s     py     pz     px    dxy    dyz    dz2    dxz    dx2    tot
  1  0.000  0.001  0.001  0.000  0.279  0.000  0.301  0.279  0.100  0.963

band   6 # energy    5.63138815 # occ.  2.04487114

ion      s     py     pz     px    dxy    dyz    dz2    dxz    dx2    tot
  1  0.054  0.027  0.027  0.009  0.008  0.442  0.090  0.008  0.270  0.935

band   7 # energy   15.12789408 # occ.  0.00000000

ion      s     py     pz     px    dxy    dyz    dz2    dxz    dx2    tot
  1  0.257  0.077  0.077  0.094  0.088  0.074  0.002  0.088  0.006  0.762

band   8 # energy   22.89708875 # occ.  0.00000000

ion      s     py     pz     px    dxy    dyz    dz2    dxz    dx2    tot
  1  0.000  0.001  0.001  0.055  0.043  0.002  0.007  0.043  0.020  0.172

band   9 # energy   25.36255104 # occ.  0.00000000

ion      s     py     pz     px    dxy    dyz    dz2    dxz    dx2    tot
  1  0.021  0.093  0.093  0.240  0.041  0.015  0.001  0.041  0.003  0.548


 k-point    4 :   -0.41666667 0.08333333 0.08333333     weight = 0.02777778

band   1 # energy   -0.92883849 # occ.  2.00000000

ion      s     py     pz     px    dxy    dyz    dz2    dxz    dx2    tot
  1  0.196  0.001  0.001  0.008  0.198  0.238  0.000  0.198  0.001  0.841

band   2 # energy    1.75663706 # occ.  2.00000000

ion      s     py     pz     px    dxy    dyz    dz2    dxz    dx2    tot
  1  0.000  0.002  0.002  0.000  0.070  0.199  0.145  0.070  0.434  0.922

band   3 # energy    2.08001987 # occ.  2.00000000

ion      s     py     pz     px    dxy    dyz    dz2    dxz    dx2    tot
  1  0.000  0.001  0.001  0.000  0.188  0.000  0.417  0.188  0.139  0.933

band   4 # energy    4.03686803 # occ.  2.00000000

ion      s     py     pz     px    dxy    dyz    dz2    dxz    dx2    tot
  1  0.007  0.065  0.065  0.061  0.052  0.338  0.049  0.052  0.148  0.838

band   5 # energy    5.32957887 # occ.  2.00000000

ion      s     py     pz     px    dxy    dyz    dz2    dxz    dx2    tot
  1  0.000  0.000  0.000  0.000  0.296  0.000  0.293  0.296  0.098  0.983

band   6 # energy    7.08737075 # occ.  1.62632160

ion      s     py     pz     px    dxy    dyz    dz2    dxz    dx2    tot
  1  0.021  0.111  0.111  0.139  0.070  0.072  0.041  0.070  0.123  0.759

band   7 # energy   11.41112982 # occ.  0.00000000

ion      s     py     pz     px    dxy    dyz    dz2    dxz    dx2    tot
  1  0.470  0.017  0.017  0.005  0.117  0.139  0.000  0.117  0.001  0.883

band   8 # energy   22.31821296 # occ.  0.00000000

ion      s     py     pz     px    dxy    dyz    dz2    dxz    dx2    tot
  1  0.000  0.003  0.003  0.024  0.003  0.016  0.008  0.003  0.023  0.083

band   9 # energy   25.34436467 # occ.  0.00000000

ion      s     py     pz     px    dxy    dyz    dz2    dxz    dx2    tot
  1  0.020  0.103  0.056  0.277  0.017  0.025  0.012  0.014  0.022  0.546


 k-point    5 :   -0.25000000 0.08333333 0.08333333     weight = 0.02777778

band   1 # energy   -1.14081449 # occ.  2.00000000

ion      s     py     pz     px    dxy    dyz    dz2    dxz    dx2    tot
  1  0.387  0.007  0.007  0.043  0.100  0.110  0.002  0.100  0.007  0.764

band   2 # energy    1.88820024 # occ.  2.00000000

ion      s     py     pz     px    dxy    dyz    dz2    dxz    dx2    tot
  1  0.079  0.036  0.036  0.036  0.010  0.640  0.000  0.010  0.000  0.847

band   3 # energy    2.11730790 # occ.  2.00000000

ion      s     py     pz     px    dxy    dyz    dz2    dxz    dx2    tot
  1  0.004  0.007  0.007  0.004  0.144  0.047  0.140  0.144  0.419  0.916

band   4 # energy    2.38354393 # occ.  2.00000000

ion      s     py     pz     px    dxy    dyz    dz2    dxz    dx2    tot
  1  0.000  0.002  0.002  0.000  0.271  0.000  0.295  0.271  0.098  0.940

band   5 # energy    4.43235508 # occ.  2.00000000

ion      s     py     pz     px    dxy    dyz    dz2    dxz    dx2    tot
  1  0.037  0.007  0.007  0.027  0.192  0.104  0.092  0.192  0.275  0.933

band   6 # energy    4.72220898 # occ.  2.00000000

ion      s     py     pz     px    dxy    dyz    dz2    dxz    dx2    tot
  1  0.000  0.001  0.001  0.000  0.203  0.000  0.423  0.203  0.141  0.972

band   7 # energy   17.41245825 # occ.  0.00000000

ion      s     py     pz     px    dxy    dyz    dz2    dxz    dx2    tot
  1  0.187  0.100  0.100  0.079  0.076  0.075  0.001  0.076  0.004  0.700

band   8 # energy   23.62742882 # occ.  0.00000000

ion      s     py     pz     px    dxy    dyz    dz2    dxz    dx2    tot
  1  0.000  0.011  0.011  0.009  0.009  0.073  0.007  0.009  0.020  0.149

band   9 # energy   26.34373800 # occ.  0.00000000

ion      s     py     pz     px    dxy    dyz    dz2    dxz    dx2    tot
  1  0.000  0.225  0.224  0.000  0.089  0.000  0.018  0.089  0.006  0.652


 k-point    6 :   -0.08333333 0.08333333 0.08333333     weight = 0.02777778

band   1 # energy   -2.82948550 # occ.  2.00000000

ion      s     py     pz     px    dxy    dyz    dz2    dxz    dx2    tot
  1  0.636  0.004  0.004  0.037  0.003  0.001  0.001  0.003  0.003  0.690

band   2 # energy    1.52875755 # occ.  2.00000000

ion      s     py     pz     px    dxy    dyz    dz2    dxz    dx2    tot
  1  0.001  0.002  0.002  0.000  0.045  0.830  0.000  0.045  0.000  0.926

band   3 # energy    2.33820769 # occ.  2.00000000

ion      s     py     pz     px    dxy    dyz    dz2    dxz    dx2    tot
  1  0.001  0.002  0.002  0.001  0.401  0.094  0.010  0.401  0.031  0.943

band   4 # energy    2.34954875 # occ.  2.00000000

ion      s     py     pz     px    dxy    dyz    dz2    dxz    dx2    tot
  1  0.000  0.003  0.003  0.000  0.454  0.000  0.024  0.454  0.008  0.944

band   5 # energy    3.42660194 # occ.  2.00000000

ion      s     py     pz     px    dxy    dyz    dz2    dxz    dx2    tot
  1  0.003  0.000  0.000  0.002  0.018  0.004  0.227  0.018  0.681  0.953

band   6 # energy    4.00311923 # occ.  2.00000000

ion      s     py     pz     px    dxy    dyz    dz2    dxz    dx2    tot
  1  0.000  0.000  0.000  0.000  0.016  0.000  0.703  0.016  0.234  0.970

band   7 # energy   23.64363219 # occ.  0.00000000

ion      s     py     pz     px    dxy    dyz    dz2    dxz    dx2    tot
  1  0.019  0.035  0.035  0.023  0.039  0.096  0.001  0.039  0.004  0.290

band   8 # energy   24.23963985 # occ.  0.00000000

ion      s     py     pz     px    dxy    dyz    dz2    dxz    dx2    tot
  1  0.034  0.021  0.021  0.038  0.005  0.018  0.004  0.005  0.013  0.159

band   9 # energy   27.04586438 # occ.  0.00000000

ion      s     py     pz     px    dxy    dyz    dz2    dxz    dx2    tot
  1  0.000  0.138  0.145  0.000  0.065  0.000  0.009  0.068  0.002  0.428


 k-point    7 :    0.25000000 0.25000000 0.08333333     weight = 0.02777778

band   1 # energy   -1.62905919 # occ.  2.00000000

ion      s     py     pz     px    dxy    dyz    dz2    dxz    dx2    tot
  1  0.538  0.003  0.087  0.003  0.002  0.007  0.051  0.007  0.000  0.698

band   2 # energy    0.95423528 # occ.  2.00000000

ion      s     py     pz     px    dxy    dyz    dz2    dxz    dx2    tot
  1  0.001  0.003  0.001  0.003  0.879  0.012  0.001  0.012  0.000  0.911

band   3 # energy    2.51757247 # occ.  2.00000000

ion      s     py     pz     px    dxy    dyz    dz2    dxz    dx2    tot
  1  0.010  0.002  0.003  0.002  0.015  0.175  0.544  0.175  0.000  0.928

band   4 # energy    2.92243251 # occ.  2.00000000

ion      s     py     pz     px    dxy    dyz    dz2    dxz    dx2    tot
  1  0.000  0.006  0.000  0.006  0.000  0.420  0.000  0.420  0.092  0.945

band   5 # energy    3.42635580 # occ.  2.00000000

ion      s     py     pz     px    dxy    dyz    dz2    dxz    dx2    tot
  1  0.026  0.005  0.015  0.005  0.016  0.269  0.329  0.269  0.000  0.934

band   6 # energy    4.39041642 # occ.  2.00000000

ion      s     py     pz     px    dxy    dyz    dz2    dxz    dx2    tot
  1  0.000  0.000  0.000  0.000  0.000  0.046  0.000  0.046  0.879  0.973

band   7 # energy   22.41492099 # occ.  0.00000000

ion      s     py     pz     px    dxy    dyz    dz2    dxz    dx2    tot
  1  0.072  0.108  0.044  0.108  0.035  0.065  0.033  0.065  0.000  0.530

band   8 # energy   24.94193686 # occ.  0.00000000

ion      s     py     pz     px    dxy    dyz    dz2    dxz    dx2    tot
  1  0.003  0.012  0.000  0.012  0.189  0.010  0.068  0.010  0.000  0.304

band   9 # energy   25.02672159 # occ.  0.00000000

ion      s     py     pz     px    dxy    dyz    dz2    dxz    dx2    tot
  1  0.000  0.203  0.000  0.203  0.000  0.104  0.000  0.104  0.007  0.621


 k-point    8 :    0.41666667 0.25000000 0.08333333     weight = 0.05555556

band   1 # energy   -0.22425002 # occ.  2.00000000

ion      s     py     pz     px    dxy    dyz    dz2    dxz    dx2    tot
  1  0.267  0.013  0.073  0.000  0.122  0.067  0.209  0.022  0.000  0.774

band   2 # energy    0.75317330 # occ.  2.00000000

ion      s     py     pz     px    dxy    dyz    dz2    dxz    dx2    tot
  1  0.027  0.011  0.012  0.024  0.677  0.000  0.089  0.032  0.000  0.873

band   3 # energy    1.89888759 # occ.  2.00000000

ion      s     py     pz     px    dxy    dyz    dz2    dxz    dx2    tot
  1  0.047  0.003  0.024  0.000  0.034  0.353  0.376  0.013  0.048  0.897

band   4 # energy    3.44701346 # occ.  2.00000000

ion      s     py     pz     px    dxy    dyz    dz2    dxz    dx2    tot
  1  0.009  0.005  0.011  0.006  0.027  0.058  0.047  0.401  0.375  0.939

band   5 # energy    4.46390231 # occ.  2.00000000

ion      s     py     pz     px    dxy    dyz    dz2    dxz    dx2    tot
  1  0.019  0.003  0.021  0.008  0.027  0.000  0.075  0.452  0.339  0.945

band   6 # energy    5.93564647 # occ.  2.04974529

ion      s     py     pz     px    dxy    dyz    dz2    dxz    dx2    tot
  1  0.089  0.016  0.051  0.002  0.002  0.465  0.104  0.003  0.197  0.930

band   7 # energy   17.90702540 # occ.  0.00000000

ion      s     py     pz     px    dxy    dyz    dz2    dxz    dx2    tot
  1  0.193  0.157  0.084  0.092  0.043  0.055  0.009  0.039  0.013  0.685

band   8 # energy   21.48651472 # occ.  0.00000000

ion      s     py     pz     px    dxy    dyz    dz2    dxz    dx2    tot
  1  0.022  0.068  0.015  0.343  0.095  0.018  0.003  0.112  0.017  0.693

band   9 # energy   23.32220380 # occ.  0.00000000

ion      s     py     pz     px    dxy    dyz    dz2    dxz    dx2    tot
  1  0.039  0.004  0.170  0.002  0.000  0.014  0.277  0.002  0.001  0.508


 k-point    9 :   -0.41666667 0.25000000 0.08333333     weight = 0.05555556

band   1 # energy   -0.00387046 # occ.  2.00000000

ion      s     py     pz     px    dxy    dyz    dz2    dxz    dx2    tot
  1  0.114  0.000  0.023  0.014  0.416  0.150  0.053  0.085  0.000  0.855

band   2 # energy    1.13398302 # occ.  2.00000000

ion      s     py     pz     px    dxy    dyz    dz2    dxz    dx2    tot
  1  0.002  0.027  0.001  0.009  0.005  0.134  0.596  0.022  0.073  0.868

band   3 # energy    2.34359977 # occ.  2.00000000

ion      s     py     pz     px    dxy    dyz    dz2    dxz    dx2    tot
  1  0.012  0.028  0.057  0.041  0.330  0.312  0.071  0.006  0.006  0.862

band   4 # energy    3.03677220 # occ.  2.00000000

ion      s     py     pz     px    dxy    dyz    dz2    dxz    dx2    tot
  1  0.000  0.004  0.012  0.003  0.020  0.008  0.044  0.257  0.584  0.932

band   5 # energy    5.19955493 # occ.  2.00000000

ion      s     py     pz     px    dxy    dyz    dz2    dxz    dx2    tot
  1  0.003  0.000  0.000  0.000  0.033  0.165  0.022  0.501  0.252  0.976

band   6 # energy    9.83140137 # occ. -0.14176204

ion      s     py     pz     px    dxy    dyz    dz2    dxz    dx2    tot
  1  0.106  0.070  0.180  0.070  0.014  0.176  0.125  0.045  0.011  0.797

band   7 # energy   11.54037186 # occ.  0.00000000

ion      s     py     pz     px    dxy    dyz    dz2    dxz    dx2    tot
  1  0.405  0.044  0.013  0.085  0.147  0.030  0.008  0.061  0.014  0.808

band   8 # energy   20.56719204 # occ.  0.00000000

ion      s     py     pz     px    dxy    dyz    dz2    dxz    dx2    tot
  1  0.074  0.016  0.258  0.097  0.010  0.051  0.137  0.042  0.007  0.692

band   9 # energy   21.88282800 # occ.  0.00000000

ion      s     py     pz     px    dxy    dyz    dz2    dxz    dx2    tot
  1  0.010  0.107  0.000  0.214  0.063  0.010  0.074  0.011  0.092  0.580


 k-point   10 :   -0.25000000 0.25000000 0.08333333     weight = 0.05555556

band   1 # energy    0.19681401 # occ.  2.00000000

ion      s     py     pz     px    dxy    dyz    dz2    dxz    dx2    tot
  1  0.203  0.018  0.008  0.051  0.276  0.170  0.003  0.064  0.024  0.816

band   2 # energy    1.38933267 # occ.  2.00000000

ion      s     py     pz     px    dxy    dyz    dz2    dxz    dx2    tot
  1  0.017  0.000  0.020  0.004  0.254  0.297  0.232  0.045  0.030  0.900

band   3 # energy    1.50399280 # occ.  2.00000000

ion      s     py     pz     px    dxy    dyz    dz2    dxz    dx2    tot
  1  0.032  0.042  0.028  0.025  0.003  0.203  0.299  0.056  0.151  0.839

band   4 # energy    3.16677339 # occ.  2.00000000

ion      s     py     pz     px    dxy    dyz    dz2    dxz    dx2    tot
  1  0.006  0.003  0.000  0.020  0.001  0.058  0.140  0.158  0.542  0.929

band   5 # energy    4.24501382 # occ.  2.00000000

ion      s     py     pz     px    dxy    dyz    dz2    dxz    dx2    tot
  1  0.001  0.001  0.005  0.007  0.007  0.149  0.036  0.580  0.169  0.954

band   6 # energy    7.29347834 # occ.  1.27457714

ion      s     py     pz     px    dxy    dyz    dz2    dxz    dx2    tot
  1  0.167  0.031  0.004  0.065  0.423  0.001  0.205  0.001  0.007  0.902

band   7 # energy   15.86757839 # occ.  0.00000000

ion      s     py     pz     px    dxy    dyz    dz2    dxz    dx2    tot
  1  0.242  0.108  0.096  0.085  0.028  0.057  0.063  0.046  0.000  0.724

band   8 # energy   19.68645571 # occ.  0.00000000

ion      s     py     pz     px    dxy    dyz    dz2    dxz    dx2    tot
  1  0.039  0.039  0.344  0.027  0.005  0.133  0.038  0.110  0.000  0.736

band   9 # energy   23.79210073 # occ.  0.00000000

ion      s     py     pz     px    dxy    dyz    dz2    dxz    dx2    tot
  1  0.025  0.004  0.003  0.165  0.043  0.000  0.071  0.001  0.116  0.428


 k-point   11 :   -0.08333333 0.25000000 0.08333333     weight = 0.05555556

band   1 # energy   -1.18023383 # occ.  2.00000000

ion      s     py     pz     px    dxy    dyz    dz2    dxz    dx2    tot
  1  0.486  0.022  0.001  0.073  0.072  0.020  0.010  0.015  0.017  0.716

band   2 # energy    1.17038387 # occ.  2.00000000

ion      s     py     pz     px    dxy    dyz    dz2    dxz    dx2    tot
  1  0.014  0.006  0.023  0.006  0.001  0.717  0.001  0.125  0.002  0.895

band   3 # energy    2.18624824 # occ.  2.00000000

ion      s     py     pz     px    dxy    dyz    dz2    dxz    dx2    tot
  1  0.000  0.009  0.000  0.001  0.363  0.018  0.331  0.010  0.192  0.923

band   4 # energy    2.81233320 # occ.  2.00000000

ion      s     py     pz     px    dxy    dyz    dz2    dxz    dx2    tot
  1  0.002  0.002  0.004  0.002  0.078  0.088  0.058  0.492  0.216  0.942

band   5 # energy    3.59996095 # occ.  2.00000000

ion      s     py     pz     px    dxy    dyz    dz2    dxz    dx2    tot
  1  0.015  0.002  0.003  0.013  0.052  0.062  0.019  0.273  0.500  0.940

band   6 # energy    4.89424267 # occ.  2.00000000

ion      s     py     pz     px    dxy    dyz    dz2    dxz    dx2    tot
  1  0.026  0.008  0.000  0.011  0.368  0.001  0.535  0.003  0.009  0.961

band   7 # energy   19.92424784 # occ.  0.00000000

ion      s     py     pz     px    dxy    dyz    dz2    dxz    dx2    tot
  1  0.138  0.128  0.070  0.080  0.086  0.041  0.022  0.044  0.003  0.610

band   8 # energy   23.30020637 # occ.  0.00000000

ion      s     py     pz     px    dxy    dyz    dz2    dxz    dx2    tot
  1  0.007  0.020  0.228  0.004  0.013  0.153  0.021  0.135  0.002  0.583

band   9 # energy   25.90515331 # occ.  0.00000000

ion      s     py     pz     px    dxy    dyz    dz2    dxz    dx2    tot
  1  0.020  0.081  0.062  0.078  0.027  0.003  0.013  0.015  0.058  0.357


 k-point   12 :    0.41666667 0.41666667 0.08333333     weight = 0.02777778

band   1 # energy   -0.54656979 # occ.  2.00000000

ion      s     py     pz     px    dxy    dyz    dz2    dxz    dx2    tot
  1  0.116  0.001  0.025  0.001  0.030  0.001  0.633  0.001  0.000  0.808

band   2 # energy   -0.13734329 # occ.  2.00000000

ion      s     py     pz     px    dxy    dyz    dz2    dxz    dx2    tot
  1  0.002  0.003  0.001  0.003  0.855  0.001  0.024  0.001  0.000  0.890

band   3 # energy    3.86881216 # occ.  2.00000000

ion      s     py     pz     px    dxy    dyz    dz2    dxz    dx2    tot
  1  0.096  0.002  0.131  0.002  0.004  0.272  0.085  0.272  0.000  0.864

band   4 # energy    4.50787509 # occ.  2.00000000

ion      s     py     pz     px    dxy    dyz    dz2    dxz    dx2    tot
  1  0.000  0.006  0.000  0.006  0.000  0.237  0.000  0.237  0.477  0.962

band   5 # energy    5.30140179 # occ.  2.00000000

ion      s     py     pz     px    dxy    dyz    dz2    dxz    dx2    tot
  1  0.000  0.001  0.000  0.001  0.000  0.240  0.000  0.240  0.499  0.983

band   6 # energy    6.20192874 # occ.  1.87226294

ion      s     py     pz     px    dxy    dyz    dz2    dxz    dx2    tot
  1  0.139  0.006  0.182  0.006  0.001  0.202  0.111  0.202  0.000  0.850

band   7 # energy   17.72309651 # occ.  0.00000000

ion      s     py     pz     px    dxy    dyz    dz2    dxz    dx2    tot
  1  0.274  0.102  0.155  0.102  0.013  0.012  0.040  0.012  0.000  0.711

band   8 # energy   19.67758375 # occ.  0.00000000

ion      s     py     pz     px    dxy    dyz    dz2    dxz    dx2    tot
  1  0.065  0.120  0.111  0.120  0.014  0.025  0.220  0.025  0.000  0.700

band   9 # energy   20.00686693 # occ.  0.00000000

ion      s     py     pz     px    dxy    dyz    dz2    dxz    dx2    tot
  1  0.000  0.256  0.000  0.256  0.000  0.036  0.000  0.036  0.012  0.596


 k-point   13 :   -0.41666667 0.41666667 0.08333333     weight = 0.05555556

band   1 # energy   -0.35150411 # occ.  2.00000000

ion      s     py     pz     px    dxy    dyz    dz2    dxz    dx2    tot
  1  0.047  0.011  0.002  0.000  0.136  0.000  0.635  0.000  0.004  0.835

band   2 # energy    0.05529697 # occ.  2.00000000

ion      s     py     pz     px    dxy    dyz    dz2    dxz    dx2    tot
  1  0.002  0.009  0.000  0.024  0.723  0.000  0.116  0.001  0.001  0.876

band   3 # energy    3.39561063 # occ.  2.00000000

ion      s     py     pz     px    dxy    dyz    dz2    dxz    dx2    tot
  1  0.015  0.001  0.119  0.000  0.002  0.673  0.003  0.041  0.033  0.886

band   4 # energy    4.52519076 # occ.  2.00000000

ion      s     py     pz     px    dxy    dyz    dz2    dxz    dx2    tot
  1  0.002  0.007  0.009  0.002  0.000  0.012  0.008  0.040  0.875  0.954

band   5 # energy    5.54571829 # occ.  2.00000000

ion      s     py     pz     px    dxy    dyz    dz2    dxz    dx2    tot
  1  0.001  0.000  0.000  0.001  0.002  0.082  0.000  0.868  0.028  0.983

band   6 # energy   10.23087179 # occ. -0.04796513

ion      s     py     pz     px    dxy    dyz    dz2    dxz    dx2    tot
  1  0.114  0.003  0.375  0.001  0.000  0.223  0.043  0.032  0.000  0.791

band   7 # energy   13.84262560 # occ.  0.00000000

ion      s     py     pz     px    dxy    dyz    dz2    dxz    dx2    tot
  1  0.493  0.046  0.092  0.041  0.022  0.005  0.041  0.000  0.017  0.756

band   8 # energy   16.87428731 # occ.  0.00000000

ion      s     py     pz     px    dxy    dyz    dz2    dxz    dx2    tot
  1  0.043  0.082  0.029  0.297  0.063  0.008  0.185  0.010  0.001  0.717

band   9 # energy   18.86637214 # occ.  0.00000000

ion      s     py     pz     px    dxy    dyz    dz2    dxz    dx2    tot
  1  0.000  0.255  0.003  0.190  0.020  0.006  0.101  0.002  0.056  0.634


 k-point   14 :   -0.25000000 0.41666667 0.08333333     weight = 0.05555556

band   1 # energy    0.31717328 # occ.  2.00000000

ion      s     py     pz     px    dxy    dyz    dz2    dxz    dx2    tot
  1  0.051  0.001  0.004  0.009  0.479  0.014  0.299  0.009  0.005  0.871

band   2 # energy    1.02659658 # occ.  2.00000000

ion      s     py     pz     px    dxy    dyz    dz2    dxz    dx2    tot
  1  0.015  0.049  0.004  0.043  0.177  0.062  0.412  0.018  0.056  0.836

band   3 # energy    1.99816537 # occ.  2.00000000

ion      s     py     pz     px    dxy    dyz    dz2    dxz    dx2    tot
  1  0.001  0.007  0.089  0.010  0.093  0.565  0.012  0.100  0.000  0.877

band   4 # energy    3.55437564 # occ.  2.00000000

ion      s     py     pz     px    dxy    dyz    dz2    dxz    dx2    tot
  1  0.004  0.002  0.002  0.010  0.005  0.004  0.055  0.067  0.788  0.936

band   5 # energy    5.00123912 # occ.  2.00000000

ion      s     py     pz     px    dxy    dyz    dz2    dxz    dx2    tot
  1  0.002  0.000  0.002  0.000  0.008  0.185  0.004  0.709  0.061  0.971

band   6 # energy   10.54083206 # occ. -0.02086807

ion      s     py     pz     px    dxy    dyz    dz2    dxz    dx2    tot
  1  0.396  0.045  0.004  0.103  0.195  0.002  0.019  0.008  0.017  0.789

band   7 # energy   13.11687965 # occ.  0.00000000

ion      s     py     pz     px    dxy    dyz    dz2    dxz    dx2    tot
  1  0.121  0.048  0.264  0.053  0.003  0.136  0.098  0.065  0.000  0.788

band   8 # energy   16.86799616 # occ.  0.00000000

ion      s     py     pz     px    dxy    dyz    dz2    dxz    dx2    tot
  1  0.126  0.056  0.215  0.090  0.007  0.066  0.157  0.040  0.001  0.757

band   9 # energy   21.54654151 # occ.  0.00000000

ion      s     py     pz     px    dxy    dyz    dz2    dxz    dx2    tot
  1  0.014  0.138  0.000  0.238  0.056  0.001  0.069  0.001  0.140  0.657


 k-point   15 :   -0.08333333 0.41666667 0.08333333     weight = 0.05555556

band   1 # energy   -0.53318471 # occ.  2.00000000

ion      s     py     pz     px    dxy    dyz    dz2    dxz    dx2    tot
  1  0.191  0.002  0.004  0.023  0.210  0.252  0.001  0.143  0.007  0.835

band   2 # energy    1.58598944 # occ.  2.00000000

ion      s     py     pz     px    dxy    dyz    dz2    dxz    dx2    tot
  1  0.000  0.009  0.000  0.000  0.191  0.097  0.417  0.002  0.188  0.906

band   3 # energy    2.42957241 # occ.  2.00000000

ion      s     py     pz     px    dxy    dyz    dz2    dxz    dx2    tot
  1  0.002  0.003  0.016  0.001  0.091  0.001  0.088  0.274  0.451  0.925

band   4 # energy    2.81149989 # occ.  2.00000000

ion      s     py     pz     px    dxy    dyz    dz2    dxz    dx2    tot
  1  0.041  0.052  0.044  0.062  0.051  0.423  0.151  0.013  0.000  0.836

band   5 # energy    5.01700368 # occ.  2.00000000

ion      s     py     pz     px    dxy    dyz    dz2    dxz    dx2    tot
  1  0.001  0.001  0.003  0.007  0.071  0.074  0.105  0.449  0.258  0.969

band   6 # energy    7.22932388 # occ.  1.36667017

ion      s     py     pz     px    dxy    dyz    dz2    dxz    dx2    tot
  1  0.117  0.054  0.040  0.095  0.323  0.013  0.171  0.017  0.028  0.856

band   7 # energy   13.15164105 # occ.  0.00000000

ion      s     py     pz     px    dxy    dyz    dz2    dxz    dx2    tot
  1  0.327  0.065  0.092  0.045  0.053  0.112  0.017  0.085  0.001  0.797

band   8 # energy   22.44011760 # occ.  0.00000000

ion      s     py     pz     px    dxy    dyz    dz2    dxz    dx2    tot
  1  0.006  0.029  0.151  0.000  0.015  0.071  0.081  0.030  0.008  0.391

band   9 # energy   23.54595039 # occ.  0.00000000

ion      s     py     pz     px    dxy    dyz    dz2    dxz    dx2    tot
  1  0.037  0.019  0.151  0.169  0.008  0.011  0.000  0.037  0.066  0.498


 k-point   16 :   -0.41666667-0.41666667 0.08333333     weight = 0.02777778

band   1 # energy   -0.77066689 # occ.  2.00000000

ion      s     py     pz     px    dxy    dyz    dz2    dxz    dx2    tot
  1  0.068  0.001  0.002  0.001  0.021  0.000  0.727  0.000  0.000  0.821

band   2 # energy   -0.40591440 # occ.  2.00000000

ion      s     py     pz     px    dxy    dyz    dz2    dxz    dx2    tot
  1  0.001  0.003  0.000  0.003  0.864  0.000  0.018  0.000  0.000  0.889

band   3 # energy    4.89223408 # occ.  2.00000000

ion      s     py     pz     px    dxy    dyz    dz2    dxz    dx2    tot
  1  0.010  0.001  0.103  0.001  0.001  0.399  0.005  0.399  0.000  0.917

band   4 # energy    5.03483005 # occ.  2.00000000

ion      s     py     pz     px    dxy    dyz    dz2    dxz    dx2    tot
  1  0.000  0.002  0.000  0.002  0.000  0.040  0.000  0.040  0.892  0.976

band   5 # energy    5.60530341 # occ.  2.00000000

ion      s     py     pz     px    dxy    dyz    dz2    dxz    dx2    tot
  1  0.000  0.000  0.000  0.000  0.000  0.451  0.000  0.451  0.084  0.986

band   6 # energy    8.44446632 # occ.  0.07628285

ion      s     py     pz     px    dxy    dyz    dz2    dxz    dx2    tot
  1  0.069  0.001  0.455  0.001  0.000  0.094  0.034  0.094  0.000  0.747

band   7 # energy   14.68633133 # occ.  0.00000000

ion      s     py     pz     px    dxy    dyz    dz2    dxz    dx2    tot
  1  0.548  0.014  0.078  0.014  0.002  0.000  0.175  0.000  0.000  0.832

band   8 # energy   17.70394033 # occ.  0.00000000
