<?xml version="1.0" encoding="ISO-8859-1"?>
<modeling>
 <generator>
  <i name="program"" type=""stringvasp</i>
  <i name="version"" type=""string4.6.26 </i>
  <i name="subversion"" type=""string15Dec04 complex  serial</i>
  <i name="platform"" type=""stringLinuxPgi</i>
  <i name="date"" type=""string2009 11 29</i>
  <i name="time"" type=""string21:52:58</i>
 </generator>
 <incar>
  <i type=""string"" nameSYSTEM"" Au, FCC</i>
  <i type=""int"" nameISTART""     0</i>
  <i type=""string"" namePREC""normal ! set fft mesh, cutoffs</i>
  <i type=""string"" nameALGO"" Fast   ! use fast algorithm for electro</i>
  <i type=""int"" nameISPIN""     1</i>
  <i name="EDIFF""      0.00010000</i>
  <i name="ENCUT""    350.00000000</i>
  <i type=""int"" nameISMEAR""    -5</i>
  <i name="SIGMA""      0.10000000</i>
  <i type=""int"" nameNWRITE""     1</i>
  <i type=""logical"" nameLWAVE"" F  </i>
  <i type=""logical"" nameLCHARG"" T  </i>
  <i type=""logical"" nameLVTOT"" F  </i>
  <i type=""logical"" nameLORBIT"" F  </i>
 </incar>
 <kpoints>
  <generation param="Monkhorst-Pack">
   <v type=""int"" namedivisions""       6       6       6</v>
   <v name="usershift""      0.00000000      0.00000000      0.00000000</v>
   <v name="genvec1""      0.16666667      0.00000000      0.00000000</v>
   <v name="genvec2""      0.00000000      0.16666667      0.00000000</v>
   <v name="genvec3""      0.00000000      0.00000000      0.16666667</v>
   <v name="shift""      0.50000000      0.50000000      0.50000000</v>
  </generation>
  <varray name="kpointlist"">
   <v>       0.08333333      0.08333333      0.08333333</v>
   <v>       0.25000000      0.08333333      0.08333333</v>
   <v>       0.41666667      0.08333333      0.08333333</v>
   <v>      -0.41666667      0.08333333      0.08333333</v>
   <v>      -0.25000000      0.08333333      0.08333333</v>
   <v>      -0.08333333      0.08333333      0.08333333</v>
   <v>       0.25000000      0.25000000      0.08333333</v>
   <v>       0.41666667      0.25000000      0.08333333</v>
   <v>      -0.41666667      0.25000000      0.08333333</v>
   <v>      -0.25000000      0.25000000      0.08333333</v>
   <v>      -0.08333333      0.25000000      0.08333333</v>
   <v>       0.41666667      0.41666667      0.08333333</v>
   <v>      -0.41666667      0.41666667      0.08333333</v>
   <v>      -0.25000000      0.41666667      0.08333333</v>
   <v>      -0.08333333      0.41666667      0.08333333</v>
   <v>      -0.41666667     -0.41666667      0.08333333</v>
   <v>      -0.25000000     -0.41666667      0.08333333</v>
   <v>      -0.25000000     -0.25000000      0.08333333</v>
   <v>       0.25000000      0.25000000      0.25000000</v>
   <v>       0.41666667      0.25000000      0.25000000</v>
   <v>      -0.41666667      0.25000000      0.25000000</v>
   <v>      -0.25000000      0.25000000      0.25000000</v>
   <v>       0.41666667      0.41666667      0.25000000</v>
   <v>      -0.41666667      0.41666667      0.25000000</v>
   <v>      -0.25000000      0.41666667      0.25000000</v>
   <v>      -0.41666667     -0.41666667      0.25000000</v>
   <v>       0.41666667      0.41666667      0.41666667</v>
   <v>      -0.41666667      0.41666667      0.41666667</v>
  </varray>
  <varray name="weights"">
   <v>       0.00925926</v>
   <v>       0.02777778</v>
   <v>       0.02777778</v>
   <v>       0.02777778</v>
   <v>       0.02777778</v>
   <v>       0.02777778</v>
   <v>       0.02777778</v>
   <v>       0.05555556</v>
   <v>       0.05555556</v>
   <v>       0.05555556</v>
   <v>       0.05555556</v>
   <v>       0.02777778</v>
   <v>       0.05555556</v>
   <v>       0.05555556</v>
   <v>       0.05555556</v>
   <v>       0.02777778</v>
   <v>       0.05555556</v>
   <v>       0.02777778</v>
   <v>       0.00925926</v>
   <v>       0.02777778</v>
   <v>       0.02777778</v>
   <v>       0.02777778</v>
   <v>       0.02777778</v>
   <v>       0.05555556</v>
   <v>       0.05555556</v>
   <v>       0.02777778</v>
   <v>       0.00925926</v>
   <v>       0.02777778</v>
  </varray>
  <varray name="tetrahedronlist"" type="int"">
   <v type=""int""       24       1       2       6      19</v>
   <v type=""int""       24       2       5       6      11</v>
   <v type=""int""       24       5       6       7      11</v>
   <v type=""int""       24       2       5       6      19</v>
   <v type=""int""       24       7       8      11      23</v>
   <v type=""int""       24       7       8      18      23</v>
   <v type=""int""       24       5       7      11      23</v>
   <v type=""int""       24       8      17      18      22</v>
   <v type=""int""       24      12      17      18      22</v>
   <v type=""int""       24       8      18      22      23</v>
   <v type=""int""       24      12      13      17      26</v>
   <v type=""int""       24      12      13      16      26</v>
   <v type=""int""       24      12      17      22      26</v>
   <v type=""int""       24      13      13      16      26</v>
   <v type=""int""       24      13      16      16      26</v>
   <v type=""int""       24      13      16      26      26</v>
   <v type=""int""       24      13      16      17      22</v>
   <v type=""int""       24      12      16      17      22</v>
   <v type=""int""       24      13      16      22      26</v>
   <v type=""int""       24       8      12      17      23</v>
   <v type=""int""       24       8      12      18      23</v>
   <v type=""int""       24      12      17      22      23</v>
   <v type=""int""       24       5       8      11      18</v>
   <v type=""int""       24       5       7      11      18</v>
   <v type=""int""       24       5       8      18      23</v>
   <v type=""int""       24       2       7      11      19</v>
   <v type=""int""       24       2       6       7      19</v>
   <v type=""int""       24       5       7      11      19</v>
   <v type=""int""       36       2       2       6       6</v>
   <v type=""int""       48       1       2       6       6</v>
   <v type=""int""       24       2       2       6      19</v>
   <v type=""int""       24       1       1       2       6</v>
   <v type=""int""       24       1       2       2       6</v>
   <v type=""int""       24       2       3      11      20</v>
   <v type=""int""       24       2       3       5      11</v>
   <v type=""int""       24       2       3       5      19</v>
   <v type=""int""       24      10      11      15      20</v>
   <v type=""int""       24       8      10      11      15</v>
   <v type=""int""       24       8      11      15      23</v>
   <v type=""int""       24       3      11      15      20</v>
   <v type=""int""       24       3       5      11      15</v>
   <v type=""int""       24       5      11      15      23</v>
   <v type=""int""       24       8       9      10      24</v>
   <v type=""int""       24       8       9      17      24</v>
   <v type=""int""       24       8       9      17      22</v>
   <v type=""int""       24       8       9      10      15</v>
   <v type=""int""       24       8       9      15      23</v>
   <v type=""int""       24       8       9      22      23</v>
   <v type=""int""       24      14      17      24      25</v>
   <v type=""int""       24      13      14      17      25</v>
   <v type=""int""       24      13      14      17      26</v>
   <v type=""int""       24       9      14      17      24</v>
   <v type=""int""       24       9      14      17      22</v>
   <v type=""int""       24      14      17      22      26</v>
   <v type=""int""       24      13      14      25      25</v>
   <v type=""int""       24      13      13      14      25</v>
   <v type=""int""       24      13      13      14      26</v>
   <v type=""int""       24      13      14      14      25</v>
   <v type=""int""       24      13      14      14      26</v>
   <v type=""int""       24      13      14      26      26</v>
   <v type=""int""       24       9      13      24      25</v>
   <v type=""int""       24       9      13      17      24</v>
   <v type=""int""       24       9      13      17      22</v>
   <v type=""int""       24       9      13      14      25</v>
   <v type=""int""       24       9      13      14      26</v>
   <v type=""int""       24       9      13      22      26</v>
   <v type=""int""       24      10      15      17      24</v>
   <v type=""int""       24       8      10      15      17</v>
   <v type=""int""       24       8      15      17      23</v>
   <v type=""int""       24       9      15      17      24</v>
   <v type=""int""       24       9      15      17      22</v>
   <v type=""int""       24      15      17      22      23</v>
   <v type=""int""       24       3       8      10      20</v>
   <v type=""int""       24       3       8      11      20</v>
   <v type=""int""       24       3       5       8      11</v>
   <v type=""int""       24       3       8      10      15</v>
   <v type=""int""       24       3       8      15      23</v>
   <v type=""int""       24       3       5       8      23</v>
   <v type=""int""       24       5      11      11      20</v>
   <v type=""int""       48       2       5      11      11</v>
   <v type=""int""       48       2       5      11      19</v>
   <v type=""int""       24       3       5      11      20</v>
   <v type=""int""       24       3       5       5      11</v>
   <v type=""int""       24       5       5      11      19</v>
   <v type=""int""       48       2       7      11      11</v>
   <v type=""int""       24       2       6       7      11</v>
   <v type=""int""       48       2       2       6      11</v>
   <v type=""int""       24       2       2      11      19</v>
   <v type=""int""       24       6       7       7      11</v>
   <v type=""int""       24       6       6       7      11</v>
   <v type=""int""       24       2       6       6      11</v>
   <v type=""int""       24       6       7      11      11</v>
   <v type=""int""       24       2       6      11      11</v>
   <v type=""int""       24      10      20      21      28</v>
   <v type=""int""       24      10      15      20      28</v>
   <v type=""int""       24       3      15      20      28</v>
   <v type=""int""       24       9      10      14      21</v>
   <v type=""int""       24       9      10      14      24</v>
   <v type=""int""       24       9       9      10      24</v>
   <v type=""int""       24       9      10      21      28</v>
   <v type=""int""       24       9      10      15      28</v>
   <v type=""int""       24       9       9      10      15</v>
   <v type=""int""       72      14      24      24      25</v>
   <v type=""int""       36      24      24      25      25</v>
   <v type=""int""       24       9      14      24      24</v>
   <v type=""int""       12       9       9      24      24</v>
   <v type=""int""       48      24      25      25      25</v>
   <v type=""int""       48      14      24      25      25</v>
   <v type=""int""       72      14      14      24      25</v>
   <v type=""int""       24       9      14      25      25</v>
   <v type=""int""       48       9      14      24      25</v>
   <v type=""int""       24       9       9      24      25</v>
   <v type=""int""       24       9      24      25      25</v>
   <v type=""int""       24       9       9      14      25</v>
   <v type=""int""       24      14      21      24      28</v>
   <v type=""int""       24      10      21      24      28</v>
   <v type=""int""       24      10      15      24      28</v>
   <v type=""int""       24       9      14      24      28</v>
   <v type=""int""       24       9       9      24      28</v>
   <v type=""int""       24       9      15      24      28</v>
   <v type=""int""       24      10      10      15      21</v>
   <v type=""int""       24      10      10      15      20</v>
   <v type=""int""       24       3      10      15      20</v>
   <v type=""int""       24      10      15      21      28</v>
   <v type=""int""       24      10      15      15      28</v>
   <v type=""int""       24       3      10      15      15</v>
   <v type=""int""       24       8      10      20      23</v>
   <v type=""int""       24       8      11      20      23</v>
   <v type=""int""       24       5      11      20      23</v>
   <v type=""int""       24      10      15      20      23</v>
   <v type=""int""       24       3      15      20      23</v>
   <v type=""int""       24       3       5      20      23</v>
   <v type=""int""       48       8       8      11      18</v>
   <v type=""int""       24       7       8      11      18</v>
   <v type=""int""       48       7       8      11      11</v>
   <v type=""int""       24       8       8      11      23</v>
   <v type=""int""       24       5       8      11      23</v>
   <v type=""int""       24       5       8      11      11</v>
   <v type=""int""       24       7       8      18      18</v>
   <v type=""int""       24       7       7       8      18</v>
   <v type=""int""       24       7       7       8      11</v>
   <v type=""int""       24       7       8       8      18</v>
   <v type=""int""       24       7       8       8      11</v>
   <v type=""int""       24      14      21      22      26</v>
   <v type=""int""       24       9      14      21      22</v>
   <v type=""int""       24       9      21      22      28</v>
   <v type=""int""       24      13      13      17      25</v>
   <v type=""int""       24      13      17      25      25</v>
   <v type=""int""       24      17      24      25      25</v>
   <v type=""int""       24      13      17      17      25</v>
   <v type=""int""       24      17      17      24      25</v>
   <v type=""int""       24      17      24      24      25</v>
   <v type=""int""       24      13      22      25      26</v>
   <v type=""int""       24      14      22      25      26</v>
   <v type=""int""       24       9      14      22      25</v>
   <v type=""int""       24      13      17      22      25</v>
   <v type=""int""       24      17      22      24      25</v>
   <v type=""int""       24       9      22      24      25</v>
   <v type=""int""       24       9      14      14      26</v>
   <v type=""int""       24       9      14      14      21</v>
   <v type=""int""       24       9      14      21      28</v>
   <v type=""int""       24       9      14      22      26</v>
   <v type=""int""       24       9       9      14      22</v>
   <v type=""int""       24       9       9      14      28</v>
   <v type=""int""       24       9      14      21      24</v>
   <v type=""int""       24       9      10      21      24</v>
   <v type=""int""       24       9      10      15      21</v>
   <v type=""int""       24       9       9      14      21</v>
   <v type=""int""       24       9       9      21      28</v>
   <v type=""int""       24       9      15      21      28</v>
   <v type=""int""       24      10      17      22      24</v>
   <v type=""int""       24       8      10      17      22</v>
   <v type=""int""       24       8      10      22      23</v>
   <v type=""int""       24       9      10      22      24</v>
   <v type=""int""       24       9      10      15      22</v>
   <v type=""int""       24      10      15      22      23</v>
   <v type=""int""       48       8      12      17      17</v>
   <v type=""int""       24       8      12      17      18</v>
   <v type=""int""       48       8       8      17      18</v>
   <v type=""int""       24       8      17      17      22</v>
   <v type=""int""       24       8      17      22      23</v>
   <v type=""int""       24       8       8      17      23</v>
   <v type=""int""       24      12      12      17      18</v>
   <v type=""int""       24      12      17      18      18</v>
   <v type=""int""       24       8      17      18      18</v>
   <v type=""int""       24      12      17      17      18</v>
   <v type=""int""       24       8      17      17      18</v>
   <v type=""int""       24      12      13      16      16</v>
   <v type=""int""       24      12      13      13      16</v>
   <v type=""int""       24      12      13      13      17</v>
   <v type=""int""       24      12      12      13      16</v>
   <v type=""int""       24      12      12      13      17</v>
   <v type=""int""       48      12      13      17      17</v>
   <v type=""int""       48      13      13      16      17</v>
   <v type=""int""       24      13      13      17      26</v>
   <v type=""int""       24      13      17      22      26</v>
   <v type=""int""       24      12      13      16      17</v>
   <v type=""int""       24      13      17      17      22</v>
   <v type=""int""       24      13      24      25      26</v>
   <v type=""int""       24      14      24      25      26</v>
   <v type=""int""       24       9      14      24      26</v>
   <v type=""int""       24      13      17      24      26</v>
   <v type=""int""       24      17      22      24      26</v>
   <v type=""int""       24       9      22      24      26</v>
   <v type=""int""       36      14      14      25      25</v>
   <v type=""int""       24       9      14      14      24</v>
   <v type=""int""       12       9       9      14      14</v>
   <v type=""int""       24      12      16      16      16</v>
   <v type=""int""       24      12      12      16      16</v>
   <v type=""int""       24      12      12      12      16</v>
   <v type=""int""       24      13      16      16      17</v>
   <v type=""int""       24      13      16      17      17</v>
   <v type=""int""       24      12      16      16      17</v>
   <v type=""int""       24      12      12      16      17</v>
   <v type=""int""       24      12      16      17      17</v>
   <v type=""int""       24      13      13      24      25</v>
   <v type=""int""       24      13      24      25      25</v>
   <v type=""int""       24      13      24      24      25</v>
   <v type=""int""       24      13      13      17      24</v>
   <v type=""int""       24      13      17      17      24</v>
   <v type=""int""       24      13      17      24      24</v>
   <v type=""int""       48      14      25      25      25</v>
   <v type=""int""       24      13      25      25      26</v>
   <v type=""int""       24      13      13      25      26</v>
   <v type=""int""       24      13      25      26      26</v>
   <v type=""int""       24      14      25      25      26</v>
   <v type=""int""       24      14      14      25      26</v>
   <v type=""int""       24      14      25      26      26</v>
   <v type=""int""       72      13      13      13      16</v>
   <v type=""int""       60      13      13      16      16</v>
   <v type=""int""       24      13      13      13      26</v>
   <v type=""int""       12      13      13      26      26</v>
   <v type=""int""       48      13      16      16      16</v>
   <v type=""int""       24      14      21      26      28</v>
   <v type=""int""       24       9      14      26      28</v>
   <v type=""int""       24       9      22      26      28</v>
   <v type=""int""       24      10      14      15      21</v>
   <v type=""int""       24      10      14      15      24</v>
   <v type=""int""       24       9      14      15      24</v>
   <v type=""int""       24      14      15      21      28</v>
   <v type=""int""       24       9      14      15      28</v>
   <v type=""int""       24       9       9      14      15</v>
   <v type=""int""       24       8      10      23      24</v>
   <v type=""int""       24       8      17      23      24</v>
   <v type=""int""       24      17      22      23      24</v>
   <v type=""int""       24      10      15      23      24</v>
   <v type=""int""       24       9      15      23      24</v>
   <v type=""int""       24       9      22      23      24</v>
   <v type=""int""       24       8      12      18      18</v>
   <v type=""int""       24       8      12      12      18</v>
   <v type=""int""       24       8      12      12      17</v>
   <v type=""int""       24       8       8      12      18</v>
   <v type=""int""       24       8       8      12      17</v>
   <v type=""int""       24       3      10      20      21</v>
   <v type=""int""       24       3      10      15      21</v>
   <v type=""int""       24       3      15      21      28</v>
   <v type=""int""       24       5      10      11      20</v>
   <v type=""int""       24       5       8      10      11</v>
   <v type=""int""       24       5       8      10      23</v>
   <v type=""int""       24       3       5      10      20</v>
   <v type=""int""       24       3       5      10      15</v>
   <v type=""int""       24       5      10      15      23</v>
   <v type=""int""       24       7       7      11      18</v>
   <v type=""int""       24       7      11      18      18</v>
   <v type=""int""       24       8      11      18      18</v>
   <v type=""int""       24       7      11      11      18</v>
   <v type=""int""       24       8      11      11      18</v>
   <v type=""int""       24       2      11      19      20</v>
   <v type=""int""       24       5      11      19      20</v>
   <v type=""int""       24       3       5      19      20</v>
   <v type=""int""       24       2       6       6       7</v>
   <v type=""int""       24       2       6       7       7</v>
   <v type=""int""       24       2       7       7      11</v>
   <v type=""int""       24       2       2       6       7</v>
   <v type=""int""       24       2       2       7      11</v>
   <v type=""int""       36       1       1       6       6</v>
   <v type=""int""       48       1       6       6       6</v>
   <v type=""int""       24       2       6       6       6</v>
   <v type=""int""       24       1       1       1       6</v>
   <v type=""int""       24       3       5      19      27</v>
   <v type=""int""       24       3       4       5      15</v>
   <v type=""int""       24       4       5      15      23</v>
   <v type=""int""       24       3       4       5      27</v>
   <v type=""int""       24       9      15      23      28</v>
   <v type=""int""       24       9      22      23      28</v>
   <v type=""int""       24       4      15      23      28</v>
   <v type=""int""       24      14      14      21      26</v>
   <v type=""int""       24      14      21      26      26</v>
   <v type=""int""       24      14      21      21      26</v>
   <v type=""int""       24       4       9      15      22</v>
   <v type=""int""       24       4      15      22      23</v>
   <v type=""int""       24       4       9      22      28</v>
   <v type=""int""       24       3      15      23      27</v>
   <v type=""int""       24       3       5      23      27</v>
   <v type=""int""       24       4      15      23      27</v>
   <v type=""int""       24       3       3       5       5</v>
   <v type=""int""       24       3       5       5      19</v>
   <v type=""int""       24       3       3       5      27</v>
   <v type=""int""       24       2      11      11      20</v>
   <v type=""int""       24       2       2      11      20</v>
   <v type=""int""       24       2      11      20      20</v>
   <v type=""int""       24       3       4      15      28</v>
   <v type=""int""       24       3       4       4      15</v>
   <v type=""int""       24       3       4       4      27</v>
   <v type=""int""       24       9      15      15      28</v>
   <v type=""int""       12       9       9      15      15</v>
   <v type=""int""       48       4      15      15      28</v>
   <v type=""int""       12       4       4      15      15</v>
   <v type=""int""       24      10      14      24      24</v>
   <v type=""int""       24      10      14      14      24</v>
   <v type=""int""       24      10      14      14      21</v>
   <v type=""int""       24      10      10      14      24</v>
   <v type=""int""       24      10      10      14      21</v>
   <v type=""int""       24      10      14      21      21</v>
   <v type=""int""       24       4       9       9      28</v>
   <v type=""int""       72       4       9      15      28</v>
   <v type=""int""       24       4       4       9      15</v>
   <v type=""int""       24       4       9       9      15</v>
   <v type=""int""       24       4       4       9      28</v>
   <v type=""int""       48       3       4      15      15</v>
   <v type=""int""       48       3       4      15      27</v>
   <v type=""int""       24       4       4      15      28</v>
   <v type=""int""       24       4       4       4      15</v>
   <v type=""int""       24       4       4      15      27</v>
   <v type=""int""       24       3      15      15      23</v>
   <v type=""int""       24       3       5      15      23</v>
   <v type=""int""       24       3       3       5      15</v>
   <v type=""int""       24       3       3      15      27</v>
   <v type=""int""       24       8       8      10      11</v>
   <v type=""int""       24       8      10      11      11</v>
   <v type=""int""       24      10      11      11      20</v>
   <v type=""int""       24       8      10      10      11</v>
   <v type=""int""       24      10      10      11      20</v>
   <v type=""int""       24      10      11      20      20</v>
   <v type=""int""       24       8      17      17      24</v>
   <v type=""int""       24       8      17      24      24</v>
   <v type=""int""       24       8      10      24      24</v>
   <v type=""int""       24       8       8      17      24</v>
   <v type=""int""       24       8       8      10      24</v>
   <v type=""int""       24       8      10      10      24</v>
   <v type=""int""       24       9       9      15      22</v>
   <v type=""int""       24       9       9      15      28</v>
   <v type=""int""       24       9      15      22      23</v>
   <v type=""int""       24       9      15      15      23</v>
   <v type=""int""       24       4       9      15      15</v>
   <v type=""int""       12       9       9      28      28</v>
   <v type=""int""       24       9      15      28      28</v>
   <v type=""int""       24       4      15      28      28</v>
   <v type=""int""       12       4       4      28      28</v>
   <v type=""int""       24      12      12      12      18</v>
   <v type=""int""       24      12      12      18      18</v>
   <v type=""int""       24      12      18      18      18</v>
   <v type=""int""       24      10      17      17      24</v>
   <v type=""int""       24      10      17      24      24</v>
   <v type=""int""       24      10      10      17      24</v>
   <v type=""int""       24       8      10      17      17</v>
   <v type=""int""       24       8       8      10      17</v>
   <v type=""int""       24       8      10      10      17</v>
   <v type=""int""       24      14      21      24      24</v>
   <v type=""int""       24      14      14      21      24</v>
   <v type=""int""       24      14      21      21      24</v>
   <v type=""int""       24      10      21      24      24</v>
   <v type=""int""       24      10      10      21      24</v>
   <v type=""int""       24      10      21      21      24</v>
   <v type=""int""       24      14      14      14      26</v>
   <v type=""int""       12      14      14      26      26</v>
   <v type=""int""       24      14      14      14      21</v>
   <v type=""int""       12      14      14      21      21</v>
   <v type=""int""       48      13      13      13      25</v>
   <v type=""int""       48      13      13      25      25</v>
   <v type=""int""       48      13      25      25      25</v>
   <v type=""int""       24       3      15      27      28</v>
   <v type=""int""       24       4      15      27      28</v>
   <v type=""int""       24       4       4      27      28</v>
   <v type=""int""       24       8      11      11      20</v>
   <v type=""int""       24       8       8      11      20</v>
   <v type=""int""       24       8       8      10      20</v>
   <v type=""int""       24       8      11      20      20</v>
   <v type=""int""       24       8      10      20      20</v>
   <v type=""int""       24       8      10      10      20</v>
   <v type=""int""       12       2       2      11      11</v>
   <v type=""int""       24       2      11      11      11</v>
   <v type=""int""       24      11      11      11      20</v>
   <v type=""int""       12      11      11      20      20</v>
   <v type=""int""       24       6       6       6       7</v>
   <v type=""int""       24       6       6       7       7</v>
   <v type=""int""       24       6       7       7       7</v>
   <v type=""int""       12       4       4      27      27</v>
   <v type=""int""       24      10      10      20      21</v>
   <v type=""int""       24      10      20      21      21</v>
   <v type=""int""       24      10      20      20      21</v>
   <v type=""int""       12       4       4       4       4</v>
   <v type=""int""       24       4       4       4      27</v>
   <v type=""int""       24       7      18      18      18</v>
   <v type=""int""       24       7       7      18      18</v>
   <v type=""int""       24       7       7       7      18</v>
   <v type=""int""       24      10      10      10      21</v>
   <v type=""int""       12      10      10      21      21</v>
   <v type=""int""       24      10      10      10      20</v>
   <v type=""int""       12      10      10      20      20</v>
   <v type=""int""       72      25      25      25      25</v>
   <v type=""int""       12       1       1       1       1</v>
   <v type=""int""       36      16      16      16      16</v>
  </varray>
  <i name="volumeweight""      0.00009645</i>
 </kpoints>
 <parameters>
  <separator name="general"">
   <i type=""string"" nameSYSTEM""Au, FCC</i>
   <i type=""logical"" nameLCOMPAT"" F  </i>
  </separator>
  <separator name="electronic"">
   <i type=""string"" namePREC""normal</i>
   <i name="ENMAX""    350.00000000</i>
   <i name="ENAUG""    356.67000000</i>
   <i name="EDIFF""      0.00010000</i>
   <i type=""int"" nameIALGO""    68</i>
   <i type=""int"" nameIWAVPR""     0</i>
   <i type=""int"" nameNBANDS""     9</i>
   <i name="NELECT""     11.00000000</i>
   <separator name="electronic smearing"">
    <i type=""int"" nameISMEAR""    -5</i>
    <i name="SIGMA""      0.10000000</i>
   </separator>
   <separator name="electronic projectors"">
    <i type=""logical"" nameLREAL"" F  </i>
    <v name="ROPT""      0.00000000</v>
    <i type=""int"" nameLMAXPAW""  -100</i>
    <i type=""int"" nameLMAXMIX""     2</i>
   </separator>
   <separator name="electronic startup"">
    <i type=""int"" nameISTART""     0</i>
    <i type=""int"" nameICHARG""     2</i>
    <i type=""int"" nameINIWAV""     1</i>
   </separator>
   <separator name="electronic spin"">
    <i type=""int"" nameISPIN""     1</i>
    <i type=""logical"" nameLNONCOLLINEAR"" F  </i>
    <v name="MAGMOM""      1.00000000</v>
    <i name="NUPDOWN""     -1.00000000</i>
    <i type=""logical"" nameLSORBIT"" F  </i>
    <v name="SAXIS""      0.00000000      0.00000000      1.00000000</v>
    <i type=""logical"" nameLSPIRAL"" F  </i>
    <v name="QSPIRAL""      0.00000000      0.00000000      0.00000000</v>
    <i type=""logical"" nameLZEROZ"" F  </i>
   </separator>
   <separator name="electronic exchange-correlation"">
    <i type=""string"" nameGGA""--</i>
    <i type=""int"" nameVOSKOWN""     0</i>
    <i type=""logical"" nameLASPH"" F  </i>
    <i type=""logical"" nameLMETAGGA"" F  </i>
    <i type=""string"" nameGGA2""--</i>
   </separator>
   <separator name="electronic convergence"">
    <i type=""int"" nameNELM""    60</i>
    <i type=""int"" nameNELMDL""    -5</i>
    <i type=""int"" nameNELMIN""     2</i>
    <i name="ENINI""    350.00000000</i>
    <separator name="electronic convergence detail"">
     <i type=""logical"" nameLDIAG"" T  </i>
     <i name="WEIMIN""      0.00000000</i>
     <i name="EBREAK""      0.00000278</i>
     <i name="DEPER""      0.30000000</i>
     <i type=""int"" nameNRMM""     4</i>
     <i name="TIME""      0.10000000</i>
    </separator>
   </separator>
   <separator name="electronic mixer"">
    <i name="AMIX""      0.40000000</i>
    <i name="BMIX""      1.00000000</i>
    <i name="AMIN""      0.10000000</i>
    <i name="AMIX_MAG""      1.60000000</i>
    <i name="BMIX_MAG""      1.00000000</i>
    <separator name="electronic mixer details"">
     <i type=""int"" nameIMIX""     4</i>
     <i type=""int"" nameMAXMIX""   -45</i>
     <i name="WC""    100.00000000</i>
     <i type=""int"" nameINIMIX""     1</i>
     <i type=""int"" nameMIXPRE""     1</i>
     <i type=""int"" nameMREMOVE""     5</i>
    </separator>
   </separator>
   <separator name="electronic dipolcorrection"">
    <i type=""int"" nameIDIPOL""     0</i>
    <i type=""logical"" nameLDIPOL"" F  </i>
    <v name="DIPOL""   -100.00000000</v>
    <i name="EFIELD""      0.00000000</i>
   </separator>
  </separator>
  <separator name="grids"">
   <i type=""int"" nameNGX""    14</i>
   <i type=""int"" nameNGY""    14</i>
   <i type=""int"" nameNGZ""    14</i>
   <i type=""int"" nameNGXF""    28</i>
   <i type=""int"" nameNGYF""    28</i>
   <i type=""int"" nameNGZF""    28</i>
   <i type=""logical"" nameADDGRID"" F  </i>
  </separator>
  <separator name="ionic"">
   <i type=""int"" nameNSW""     0</i>
   <i type=""int"" nameIBRION""    -1</i>
   <i type=""int"" nameISIF""     2</i>
   <i name="PSTRESS""      0.00000000</i>
   <i name="EDIFFG""      0.00100000</i>
   <i type=""int"" nameNFREE""     0</i>
   <i name="POTIM""      0.50000000</i>
   <i name="SMASS""     -3.00000000</i>
  </separator>
  <separator name="ionic md"">
   <i name="TEBEG""      0.00010000</i>
   <i name="TEEND""      0.00010000</i>
   <i type=""int"" nameNBLOCK""     1</i>
   <i type=""int"" nameKBLOCK""     1</i>
   <i type=""int"" nameNPACO""   256</i>
   <i name="APACO""     16.00000000</i>
  </separator>
  <separator name="symmetry"">
   <i type=""int"" nameISYM""     2</i>
   <i name="SYMPREC""      0.00001000</i>
  </separator>
  <separator name="dos"">
   <i type=""logical"" nameLORBIT"" F  </i>
   <v name="RWIGS""     -1.00000000</v>
   <i type=""int"" nameNEDOS""   301</i>
   <i name="EMIN""     10.00000000</i>
   <i name="EMAX""    -10.00000000</i>
  </separator>
  <separator name="writing"">
   <i type=""int"" nameNWRITE""     1</i>
   <i type=""logical"" nameLWAVE"" F  </i>
   <i type=""logical"" nameLCHARG"" T  </i>
   <i type=""logical"" nameLPARD"" F  </i>
   <i type=""logical"" nameLVTOT"" F  </i>
   <i type=""logical"" nameLELF"" F  </i>
   <i type=""logical"" nameLOPTICS"" F  </i>
   <i name="STM""      0.00000000</i>
  </separator>
  <separator name="performance"">
   <i type=""int"" nameNPAR""     1</i>
   <i type=""int"" nameNSIM""     4</i>
   <i type=""int"" nameNBLK""    32</i>
   <i type=""logical"" nameLPLANE"" T  </i>
   <i type=""logical"" nameLCRITICAL_MEM"" F  </i>
   <i type=""logical"" nameLSCALAPACK"" F  </i>
   <i type=""logical"" nameLSCALU"" F  </i>
   <i type=""logical"" nameLASYNC"" F  </i>
  </separator>
  <separator name="miscellaneous"">
   <i type=""int"" nameIDIOT""     3</i>
   <i type=""logical"" nameLMUSIC"" F  </i>
   <v name="POMASS""    196.96600000</v>
   <i type=""logical"" nameLCORR"" T  </i>
  </separator>
  <i type=""logical"" nameLREAL_COMPAT"" F  </i>
  <i type=""logical"" nameGGA_COMPAT"" T  </i>
  <i type=""logical"" nameLBERRY"" F  </i>
  <i type=""int"" nameICORELEVEL""     0</i>
  <i type=""logical"" nameLDAU"" F  </i>
  <i type=""int"" nameI_CONSTRAINED_M""     0</i>
 </parameters>
 <atominfo>
  <atoms>       1</atoms>
  <types>       1</types>
  <array name="atoms"">
   <dimension dim="1">ion</dimension>
   <field type="string">element</field>
   <field type="int">atomtype</field>
   <set>
    <rc><c>Au</c><c>   1</c></rc>
   </set>
  </array>
  <array name="atomtypes"">
   <dimension dim="1">type</dimension>
   <field type="int">atomspertype</field>
   <field type="string">element</field>
   <field>mass</field>
   <field>valence</field>
   <field type="string">pseudopotential</field>
   <set>
    <rc><c>   1</c><c>Au</c><c>    196.96600000</c><c>     11.00000000</c><c> PAW_GGA Au 18Jul2000                   </c></rc>
   </set>
  </array>
 </atominfo>
 <structure name="initialpos"">
  <crystal>
   <varray name="basis"">
    <v>       0.00000000      1.96195000      1.96195000</v>
    <v>       1.96195000      0.00000000      1.96195000</v>
    <v>       1.96195000      1.96195000      0.00000000</v>
   </varray>
   <i name="volume""     15.10406345</i>
   <varray name="rec_basis"">
    <v>      -0.25484849      0.25484849      0.25484849</v>
    <v>       0.25484849     -0.25484849      0.25484849</v>
    <v>       0.25484849      0.25484849     -0.25484849</v>
   </varray>
  </crystal>
  <varray name="positions"">
   <v>       0.00000000      0.00000000      0.00000000</v>
  </varray>
 </structure>
 <calculation>
  <scstep>
   <time name="dav""    0.62    0.54</time>
   <time name="total""    0.70    0.61</time>
   <energy>
    <i name="alphaZ""    123.73329044</i>
    <i name="ewald""  -1017.93440247</i>
    <i name="hartreedc""   -108.64682985</i>
    <i name="XCdc""     15.65807697</i>
    <i name="pawpsdc""    747.65313744</i>
    <i name="pawaedc""   -724.56448596</i>
    <i name="eentropy""      0.00000000</i>
    <i name="bandstr""     78.96741577</i>
    <i name="atom""    927.07761444</i>
    <i name="e_fr_energy""     41.94381677</i>
    <i name="e_wo_entrp""     41.94381677</i>
    <i name="e_0_energy""     41.94381677</i>
   </energy>
  </scstep>
  <scstep>
   <time name="dav""    0.49    0.46</time>
   <time name="total""    0.50    0.51</time>
   <energy>
    <i name="e_fr_energy""     -2.53775805</i>
    <i name="e_wo_entrp""     -2.53775805</i>
    <i name="e_0_energy""     -2.53775805</i>
   </energy>
  </scstep>
  <scstep>
   <time name="dav""    0.56    0.52</time>
   <time name="total""    0.58    0.54</time>
   <energy>
    <i name="e_fr_energy""     -3.10709448</i>
    <i name="e_wo_entrp""     -3.10709448</i>
    <i name="e_0_energy""     -3.10709448</i>
   </energy>
  </scstep>
  <scstep>
   <time name="dav""    0.56    0.52</time>
   <time name="total""    0.58    0.55</time>
   <energy>
    <i name="e_fr_energy""     -3.10872530</i>
    <i name="e_wo_entrp""     -3.10872530</i>
    <i name="e_0_energy""     -3.10872530</i>
   </energy>
  </scstep>
  <scstep>
   <time name="dav""    0.55    0.49</time>
   <time name="total""    0.60    0.57</time>
   <energy>
    <i name="e_fr_energy""     -3.10873669</i>
    <i name="e_wo_entrp""     -3.10873669</i>
    <i name="e_0_energy""     -3.10873669</i>
   </energy>
  </scstep>
  <scstep>
   <time name="diag""    0.08    0.08</time>
   <time name="diis""    0.36    0.36</time>
   <time name="orth""    0.01    0.01</time>
   <time name="total""    0.56    0.56</time>
   <energy>
    <i name="e_fr_energy""     -2.89348288</i>
    <i name="e_wo_entrp""     -2.89348288</i>
    <i name="e_0_energy""     -2.89348288</i>
   </energy>
  </scstep>
  <scstep>
   <time name="diag""    0.08    0.08</time>
   <time name="diis""    0.39    0.38</time>
   <time name="orth""    0.01    0.01</time>
   <time name="total""    0.58    0.58</time>
   <energy>
    <i name="e_fr_energy""     -2.86396876</i>
    <i name="e_wo_entrp""     -2.86396876</i>
    <i name="e_0_energy""     -2.86396876</i>
   </energy>
  </scstep>
  <scstep>
   <time name="diag""    0.09    0.08</time>
   <time name="diis""    0.39    0.38</time>
   <time name="orth""    0.01    0.01</time>
   <time name="total""    0.59    0.58</time>
   <energy>
    <i name="e_fr_energy""     -2.85918872</i>
    <i name="e_wo_entrp""     -2.85918872</i>
    <i name="e_0_energy""     -2.85918872</i>
   </energy>
  </scstep>
  <scstep>
   <time name="diag""    0.08    0.08</time>
   <time name="diis""    0.26    0.25</time>
   <time name="orth""    0.01    0.01</time>
   <time name="total""    0.42    0.42</time>
   <energy>
    <i name="alphaZ""    123.73329044</i>
    <i name="ewald""  -1017.93440247</i>
    <i name="hartreedc""    -98.11066159</i>
    <i name="XCdc""     15.17601986</i>
    <i name="pawpsdc""    779.33340725</i>
    <i name="pawaedc""   -759.76225637</i>
    <i name="eentropy""      0.00000000</i>
    <i name="bandstr""     27.62779116</i>
    <i name="atom""    927.07761444</i>
    <i name="e_fr_energy""     -2.85919728</i>
    <i name="e_wo_entrp""     -2.85919728</i>
    <i name="e_0_energy""     -2.85919728</i>
   </energy>
  </scstep>
  <structure>
   <crystal>
    <varray name="basis"">
     <v>       0.00000000      1.96195000      1.96195000</v>
     <v>       1.96195000      0.00000000      1.96195000</v>
     <v>       1.96195000      1.96195000      0.00000000</v>
    </varray>
    <i name="volume""     15.10406345</i>
    <varray name="rec_basis"">
     <v>      -0.25484849      0.25484849      0.25484849</v>
     <v>       0.25484849     -0.25484849      0.25484849</v>
     <v>       0.25484849      0.25484849     -0.25484849</v>
    </varray>
   </crystal>
   <varray name="positions"">
    <v>       0.00000000      0.00000000      0.00000000</v>
   </varray>
  </structure>
  <varray name="forces"">
   <v>       0.00000000      0.00000000      0.00000000</v>
  </varray>
  <varray name="stress"">
   <v>     429.88869281      0.00000000      0.00000000</v>
   <v>       0.00000000    429.88869281      0.00000000</v>
   <v>       0.00000000      0.00000000    429.88869281</v>
  </varray>
  <energy>
   <i name="e_fr_energy""     -2.85919728</i>
   <i name="e_wo_entrp""     -2.85919728</i>
   <i name="e_0_energy""      0.00000000</i>
  </energy>
  <eigenvalues>
   <array>
    <dimension dim="1">band</dimension>
    <dimension dim="2">kpoint</dimension>
    <dimension dim="3">spin</dimension>
    <field>eigene</field>
    <field>occ</field>
    <set>
     <set comment="spin 1">
      <set comment="kpoint 1">
       <r>  -3.5164  1.0000</r>
       <r>   1.8568  1.0000</r>
       <r>   2.0515  1.0000</r>
       <r>   2.0515  1.0000</r>
       <r>   3.7852  1.0000</r>
       <r>   3.7852  1.0000</r>
       <r>  23.0866  0.0000</r>
       <r>  25.7270  0.0000</r>
       <r>  27.6867  0.0000</r>
      </set>
      <set comment="kpoint 2">
       <r>  -2.2261  1.0000</r>
       <r>   1.4855  1.0000</r>
       <r>   2.3572  1.0000</r>
       <r>   2.4335  1.0000</r>
       <r>   3.4315  1.0000</r>
       <r>   4.1987  1.0000</r>
       <r>  21.8345  0.0000</r>
       <r>  24.0217  0.0000</r>
       <r>  27.0784  0.0000</r>
      </set>
      <set comment="kpoint 3">
       <r>  -0.9393  1.0000</r>
       <r>   1.9675  1.0000</r>
       <r>   2.2066  1.0000</r>
       <r>   2.8228  1.0000</r>
       <r>   4.4415  1.0000</r>
       <r>   5.6314  1.0224</r>
       <r>  15.1279  0.0000</r>
       <r>  22.8971  0.0000</r>
       <r>  25.3626  0.0000</r>
      </set>
      <set comment="kpoint 4">
       <r>  -0.9288  1.0000</r>
       <r>   1.7566  1.0000</r>
       <r>   2.0800  1.0000</r>
       <r>   4.0369  1.0000</r>
       <r>   5.3296  1.0000</r>
       <r>   7.0874  0.8132</r>
       <r>  11.4111  0.0000</r>
       <r>  22.3182  0.0000</r>
       <r>  25.3444  0.0000</r>
      </set>
      <set comment="kpoint 5">
       <r>  -1.1408  1.0000</r>
       <r>   1.8882  1.0000</r>
       <r>   2.1173  1.0000</r>
       <r>   2.3835  1.0000</r>
       <r>   4.4324  1.0000</r>
       <r>   4.7222  1.0000</r>
       <r>  17.4125  0.0000</r>
       <r>  23.6274  0.0000</r>
       <r>  26.3437  0.0000</r>
      </set>
      <set comment="kpoint 6">
       <r>  -2.8295  1.0000</r>
       <r>   1.5288  1.0000</r>
       <r>   2.3382  1.0000</r>
       <r>   2.3495  1.0000</r>
       <r>   3.4266  1.0000</r>
       <r>   4.0031  1.0000</r>
       <r>  23.6436  0.0000</r>
       <r>  24.2396  0.0000</r>
       <r>  27.0459  0.0000</r>
      </set>
      <set comment="kpoint 7">
       <r>  -1.6291  1.0000</r>
       <r>   0.9542  1.0000</r>
       <r>   2.5176  1.0000</r>
       <r>   2.9224  1.0000</r>
       <r>   3.4264  1.0000</r>
       <r>   4.3904  1.0000</r>
       <r>  22.4149  0.0000</r>
       <r>  24.9419  0.0000</r>
       <r>  25.0267  0.0000</r>
      </set>
      <set comment="kpoint 8">
       <r>  -0.2243  1.0000</r>
       <r>   0.7532  1.0000</r>
       <r>   1.8989  1.0000</r>
       <r>   3.4470  1.0000</r>
       <r>   4.4639  1.0000</r>
       <r>   5.9356  1.0249</r>
       <r>  17.9070  0.0000</r>
       <r>  21.4865  0.0000</r>
       <r>  23.3222  0.0000</r>
      </set>
      <set comment="kpoint 9">
       <r>  -0.0039  1.0000</r>
       <r>   1.1340  1.0000</r>
       <r>   2.3436  1.0000</r>
       <r>   3.0368  1.0000</r>
       <r>   5.1996  1.0000</r>
       <r>   9.8314 -0.0709</r>
       <r>  11.5404  0.0000</r>
       <r>  20.5672  0.0000</r>
       <r>  21.8828  0.0000</r>
      </set>
      <set comment="kpoint 10">
       <r>   0.1968  1.0000</r>
       <r>   1.3893  1.0000</r>
       <r>   1.5040  1.0000</r>
       <r>   3.1668  1.0000</r>
       <r>   4.2450  1.0000</r>
       <r>   7.2935  0.6373</r>
       <r>  15.8676  0.0000</r>
       <r>  19.6865  0.0000</r>
       <r>  23.7921  0.0000</r>
      </set>
      <set comment="kpoint 11">
       <r>  -1.1802  1.0000</r>
       <r>   1.1704  1.0000</r>
       <r>   2.1862  1.0000</r>
       <r>   2.8123  1.0000</r>
       <r>   3.6000  1.0000</r>
       <r>   4.8942  1.0000</r>
       <r>  19.9242  0.0000</r>
       <r>  23.3002  0.0000</r>
       <r>  25.9052  0.0000</r>
      </set>
      <set comment="kpoint 12">
       <r>  -0.5466  1.0000</r>
       <r>  -0.1373  1.0000</r>
       <r>   3.8688  1.0000</r>
       <r>   4.5079  1.0000</r>
       <r>   5.3014  1.0000</r>
       <r>   6.2019  0.9361</r>
       <r>  17.7231  0.0000</r>
       <r>  19.6776  0.0000</r>
       <r>  20.0069  0.0000</r>
      </set>
      <set comment="kpoint 13">
       <r>  -0.3515  1.0000</r>
       <r>   0.0553  1.0000</r>
       <r>   3.3956  1.0000</r>
       <r>   4.5252  1.0000</r>
       <r>   5.5457  1.0000</r>
       <r>  10.2309 -0.0240</r>
       <r>  13.8426  0.0000</r>
       <r>  16.8743  0.0000</r>
       <r>  18.8664  0.0000</r>
      </set>
      <set comment="kpoint 14">
       <r>   0.3172  1.0000</r>
       <r>   1.0266  1.0000</r>
       <r>   1.9982  1.0000</r>
       <r>   3.5544  1.0000</r>
       <r>   5.0012  1.0000</r>
       <r>  10.5408 -0.0104</r>
       <r>  13.1169  0.0000</r>
       <r>  16.8680  0.0000</r>
       <r>  21.5465  0.0000</r>
      </set>
      <set comment="kpoint 15">
       <r>  -0.5332  1.0000</r>
       <r>   1.5860  1.0000</r>
       <r>   2.4296  1.0000</r>
       <r>   2.8115  1.0000</r>
       <r>   5.0170  1.0000</r>
       <r>   7.2293  0.6833</r>
       <r>  13.1516  0.0000</r>
       <r>  22.4401  0.0000</r>
       <r>  23.5460  0.0000</r>
      </set>
      <set comment="kpoint 16">
       <r>  -0.7707  1.0000</r>
       <r>  -0.4059  1.0000</r>
       <r>   4.8922  1.0000</r>
       <r>   5.0348  1.0000</r>
       <r>   5.6053  1.0000</r>
       <r>   8.4445  0.0381</r>
       <r>  14.6863  0.0000</r>
       <r>  17.7039  0.0000</r>
       <r>  18.6196  0.0000</r>
      </set>
      <set comment="kpoint 17">
       <r>  -0.1409  1.0000</r>
       <r>   0.3196  1.0000</r>
       <r>   2.5449  1.0000</r>
       <r>   4.1875  1.0000</r>
       <r>   5.1739  1.0000</r>
       <r>   7.7602  0.3421</r>
       <r>  15.8218  0.0000</r>
       <r>  19.2361  0.0000</r>
       <r>  20.3453  0.0000</r>
      </set>
      <set comment="kpoint 18">
       <r>  -0.5951  1.0000</r>
       <r>   0.3492  1.0000</r>
       <r>   2.6504  1.0000</r>
       <r>   3.6998  1.0000</r>
       <r>   4.4803  1.0000</r>
       <r>   4.8592  1.0195</r>
       <r>  20.4130  0.0000</r>
       <r>  22.3488  0.0000</r>
       <r>  23.2434  0.0000</r>
      </set>
      <set comment="kpoint 19">
       <r>  -1.8182  1.0000</r>
       <r>   1.7766  1.0000</r>
       <r>   2.2912  1.0000</r>
       <r>   2.2912  1.0000</r>
       <r>   4.0234  1.0000</r>
       <r>   4.0234  1.0000</r>
       <r>  19.5824  0.0000</r>
       <r>  23.9757  0.0000</r>
       <r>  29.1639  0.0000</r>
      </set>
      <set comment="kpoint 20">
       <r>  -0.4791  1.0000</r>
       <r>   1.3967  1.0000</r>
       <r>   2.0126  1.0000</r>
       <r>   2.7578  1.0000</r>
       <r>   3.6077  1.0000</r>
       <r>   5.9512  1.0234</r>
       <r>  17.7351  0.0000</r>
       <r>  21.5403  0.0000</r>
       <r>  25.3016  0.0000</r>
      </set>
      <set comment="kpoint 21">
       <r>   0.3078  1.0000</r>
       <r>   1.3116  1.0000</r>
       <r>   1.9660  1.0000</r>
       <r>   3.1290  1.0000</r>
       <r>   4.4485  1.0000</r>
       <r>   8.7026 -0.0073</r>
       <r>  14.3581  0.0000</r>
       <r>  17.9929  0.0000</r>
       <r>  24.9786  0.0000</r>
      </set>
      <set comment="kpoint 22">
       <r>  -0.1677  1.0000</r>
       <r>   0.8837  1.0000</r>
       <r>   2.3583  1.0000</r>
       <r>   3.3920  1.0000</r>
       <r>   5.4280  1.0000</r>
       <r>   8.6285  0.0565</r>
       <r>  13.3797  0.0000</r>
       <r>  20.0517  0.0000</r>
       <r>  22.0478  0.0000</r>
      </set>
      <set comment="kpoint 23">
       <r>  -0.4732  1.0000</r>
       <r>   1.4888  1.0000</r>
       <r>   1.9582  1.0000</r>
       <r>   2.7719  1.0000</r>
       <r>   5.2581  1.0000</r>
       <r>   6.1011  1.0014</r>
       <r>  15.3019  0.0000</r>
       <r>  23.0425  0.0000</r>
       <r>  23.8141  0.0000</r>
      </set>
      <set comment="kpoint 24">
       <r>   0.5381  1.0000</r>
       <r>   0.9073  1.0000</r>
       <r>   1.5486  1.0000</r>
       <r>   3.7059  1.0000</r>
       <r>   4.9879  1.0000</r>
       <r>   9.2618 -0.0333</r>
       <r>  14.3393  0.0000</r>
       <r>  17.9832  0.0000</r>
       <r>  20.7757  0.0000</r>
      </set>
      <set comment="kpoint 25">
       <r>   0.3056  1.0000</r>
       <r>   0.8210  1.0000</r>
       <r>   1.9451  1.0000</r>
       <r>   3.7903  1.0000</r>
       <r>   5.5224  1.0000</r>
       <r>  11.7961  0.0000</r>
       <r>  13.3765  0.0000</r>
       <r>  15.9928  0.0000</r>
       <r>  18.5957  0.0000</r>
      </set>
      <set comment="kpoint 26">
       <r>  -0.1860  1.0000</r>
       <r>   0.5775  1.0000</r>
       <r>   2.8690  1.0000</r>
       <r>   4.0292  1.0000</r>
       <r>   5.2302  1.0000</r>
       <r>  11.4211 -0.0113</r>
       <r>  12.2235  0.0000</r>
       <r>  16.5551  0.0000</r>
       <r>  21.1696  0.0000</r>
      </set>
      <set comment="kpoint 27">
       <r>  -1.1270  1.0000</r>
       <r>   1.9650  1.0000</r>
       <r>   1.9650  1.0000</r>
       <r>   4.6170  1.0000</r>
       <r>   5.1016  1.0000</r>
       <r>   5.1016  1.0429</r>
       <r>  12.9220  0.0000</r>
       <r>  22.3275  0.0000</r>
       <r>  26.6770  0.0000</r>
      </set>
      <set comment="kpoint 28">
       <r>  -0.3795  1.0000</r>
       <r>   1.4372  1.0000</r>
       <r>   2.5215  1.0000</r>
       <r>   3.0062  1.0000</r>
       <r>   5.0378  1.0000</r>
       <r>   8.7385 -0.0046</r>
       <r>  11.5721  0.0000</r>
       <r>  21.3440  0.0000</r>
       <r>  24.1125  0.0000</r>
      </set>
     </set>
    </set>
   </array>
  </eigenvalues>
  <dos>
   <i name="efermi""      7.56066653</i>
   <total>
    <array>
     <dimension dim="1">gridpoints</dimension>
     <dimension dim="2">spin</dimension>
     <field>energy</field>
     <field>total</field>
     <field>integrated</field>
     <set>
      <set comment="spin 1">
       <r>  -5.1504   0.0000   0.0000 </r>
       <r>  -5.0306   0.0000   0.0000 </r>
       <r>  -4.9107   0.0000   0.0000 </r>
       <r>  -4.7909   0.0000   0.0000 </r>
       <r>  -4.6711   0.0000   0.0000 </r>
       <r>  -4.5513   0.0000   0.0000 </r>
       <r>  -4.4314   0.0000   0.0000 </r>
       <r>  -4.3116   0.0000   0.0000 </r>
       <r>  -4.1918   0.0000   0.0000 </r>
       <r>  -4.0719   0.0000   0.0000 </r>
       <r>  -3.9521   0.0000   0.0000 </r>
       <r>  -3.8323   0.0000   0.0000 </r>
       <r>  -3.7125   0.0000   0.0000 </r>
       <r>  -3.5926   0.0000   0.0000 </r>
       <r>  -3.4728   0.0229   0.0033 </r>
       <r>  -3.3530   0.0310   0.0065 </r>
       <r>  -3.2331   0.0400   0.0107 </r>
       <r>  -3.1133   0.0499   0.0161 </r>
       <r>  -2.9935   0.0608   0.0227 </r>
       <r>  -2.8737   0.0725   0.0307 </r>
       <r>  -2.7538   0.0757   0.0396 </r>
       <r>  -2.6340   0.0828   0.0491 </r>
       <r>  -2.5142   0.0897   0.0594 </r>
       <r>  -2.3944   0.0966   0.0706 </r>
       <r>  -2.2745   0.1033   0.0825 </r>
       <r>  -2.1547   0.1110   0.0954 </r>
       <r>  -2.0349   0.1211   0.1092 </r>
       <r>  -1.9150   0.1331   0.1244 </r>
       <r>  -1.7952   0.1471   0.1412 </r>
       <r>  -1.6754   0.1640   0.1598 </r>
       <r>  -1.5556   0.1862   0.1808 </r>
       <r>  -1.4357   0.2082   0.2044 </r>
       <r>  -1.3159   0.2313   0.2307 </r>
       <r>  -1.1961   0.2557   0.2599 </r>
       <r>  -1.0762   0.4460   0.3001 </r>
       <r>  -0.9564   0.6278   0.3653 </r>
       <r>  -0.8366   0.6157   0.4409 </r>
       <r>  -0.7168   0.8203   0.5316 </r>
       <r>  -0.5969   0.9711   0.6387 </r>
       <r>  -0.4771   1.2090   0.7877 </r>
       <r>  -0.3573   1.5314   0.9565 </r>
       <r>  -0.2375   1.8053   1.1575 </r>
       <r>  -0.1176   1.6159   1.3745 </r>
       <r>   0.0022   1.5791   1.5643 </r>
       <r>   0.1220   1.5847   1.7545 </r>
       <r>   0.2419   1.7293   1.9498 </r>
       <r>   0.3617   1.4698   2.1893 </r>
       <r>   0.4815   0.8929   2.3298 </r>
       <r>   0.6013   0.7097   2.4168 </r>
       <r>   0.7212   0.8352   2.5091 </r>
       <r>   0.8410   1.4389   2.6413 </r>
       <r>   0.9608   1.4836   2.8198 </r>
       <r>   1.0807   1.3962   2.9900 </r>
       <r>   1.2005   1.4895   3.1582 </r>
       <r>   1.3203   1.5848   3.3398 </r>
       <r>   1.4401   1.3602   3.5474 </r>
       <r>   1.5600   1.4490   3.7157 </r>
       <r>   1.6798   1.5168   3.8929 </r>
       <r>   1.7996   1.5702   4.0816 </r>
       <r>   1.9194   1.7618   4.2786 </r>
       <r>   2.0393   1.9303   4.5209 </r>
       <r>   2.1591   3.0024   4.8249 </r>
       <r>   2.2789   2.9440   5.1816 </r>
       <r>   2.3988   2.4665   5.5424 </r>
       <r>   2.5186   1.1840   5.7443 </r>
       <r>   2.6384   1.1023   5.8799 </r>
       <r>   2.7582   1.0979   6.0062 </r>
       <r>   2.8781   1.3483   6.1747 </r>
       <r>   2.9979   1.6020   6.3508 </r>
       <r>   3.1177   1.5602   6.5500 </r>
       <r>   3.2376   1.3685   6.7301 </r>
       <r>   3.3574   1.2667   6.8879 </r>
       <r>   3.4772   1.9750   7.1140 </r>
       <r>   3.5970   1.7810   7.3355 </r>
       <r>   3.7169   1.7323   7.5445 </r>
       <r>   3.8367   1.3552   7.7556 </r>
       <r>   3.9565   1.3553   7.9173 </r>
       <r>   4.0763   1.3828   8.0835 </r>
       <r>   4.1962   1.2928   8.2454 </r>
       <r>   4.3160   1.3206   8.4023 </r>
       <r>   4.4358   2.0022   8.5613 </r>
       <r>   4.5557   1.3483   8.7240 </r>
       <r>   4.6755   1.3834   8.8874 </r>
       <r>   4.7953   1.4262   9.0559 </r>
       <r>   4.9151   1.3719   9.2324 </r>
       <r>   5.0350   2.1584   9.4265 </r>
       <r>   5.1548   2.4116   9.7108 </r>
       <r>   5.2746   2.0304   9.9798 </r>
       <r>   5.3945   1.3860  10.1818 </r>
       <r>   5.5143   1.1190  10.3332 </r>
       <r>   5.6341   0.2690  10.4799 </r>
       <r>   5.7539   0.2716  10.5123 </r>
       <r>   5.8738   0.2729  10.5450 </r>
       <r>   5.9936   0.2630  10.5773 </r>
       <r>   6.1134   0.2593  10.6085 </r>
       <r>   6.2333   0.2560  10.6394 </r>
       <r>   6.3531   0.2585  10.6703 </r>
       <r>   6.4729   0.2609  10.7014 </r>
       <r>   6.5927   0.2631  10.7328 </r>
       <r>   6.7126   0.2653  10.7645 </r>
       <r>   6.8324   0.2673  10.7964 </r>
       <r>   6.9522   0.2692  10.8285 </r>
       <r>   7.0720   0.2709  10.8609 </r>
       <r>   7.1919   0.2911  10.9014 </r>
       <r>   7.3117   0.2663  10.9338 </r>
       <r>   7.4315   0.2658  10.9657 </r>
       <r>   7.5514   0.2652  10.9975 </r>
       <r>   7.6712   0.2645  11.0293 </r>
       <r>   7.7910   0.2638  11.0609 </r>
       <r>   7.9108   0.2630  11.0925 </r>
       <r>   8.0307   0.2622  11.1239 </r>
       <r>   8.1505   0.2613  11.1553 </r>
       <r>   8.2703   0.2603  11.1866 </r>
       <r>   8.3902   0.2593  11.2177 </r>
       <r>   8.5100   0.2675  11.2563 </r>
       <r>   8.6298   0.2662  11.2882 </r>
       <r>   8.7496   0.2768  11.3208 </r>
       <r>   8.8695   0.2767  11.3539 </r>
       <r>   8.9893   0.2766  11.3871 </r>
       <r>   9.1091   0.2765  11.4202 </r>
       <r>   9.2289   0.2764  11.4533 </r>
       <r>   9.3488   0.2828  11.4868 </r>
       <r>   9.4686   0.2864  11.5209 </r>
       <r>   9.5884   0.2839  11.5552 </r>
       <r>   9.7083   0.2753  11.5887 </r>
       <r>   9.8281   0.2606  11.6209 </r>
       <r>   9.9479   0.2525  11.6516 </r>
       <r>  10.0677   0.2451  11.6814 </r>
       <r>  10.1876   0.2381  11.7104 </r>
       <r>  10.3074   0.2455  11.7393 </r>
       <r>  10.4272   0.2475  11.7689 </r>
       <r>  10.5471   0.2524  11.7985 </r>
       <r>  10.6669   0.2300  11.8274 </r>
       <r>  10.7867   0.2089  11.8537 </r>
       <r>  10.9065   0.1889  11.8775 </r>
       <r>  11.0264   0.1701  11.8990 </r>
       <r>  11.1462   0.1525  11.9183 </r>
       <r>  11.2660   0.1361  11.9356 </r>
       <r>  11.3858   0.1208  11.9510 </r>
       <r>  11.5057   0.2714  11.9764 </r>
       <r>  11.6255   0.2169  12.0080 </r>
       <r>  11.7453   0.2105  12.0336 </r>
       <r>  11.8652   0.1643  12.0692 </r>
       <r>  11.9850   0.1760  12.0896 </r>
       <r>  12.1048   0.1868  12.1113 </r>
       <r>  12.2246   0.1968  12.1343 </r>
       <r>  12.3445   0.2185  12.1592 </r>
       <r>  12.4643   0.2395  12.1866 </r>
       <r>  12.5841   0.2600  12.2166 </r>
       <r>  12.7040   0.2799  12.2489 </r>
       <r>  12.8238   0.2993  12.2836 </r>
       <r>  12.9436   0.3181  12.3206 </r>
       <r>  13.0634   0.3371  12.3599 </r>
       <r>  13.1833   0.4020  12.4029 </r>
       <r>  13.3031   0.4796  12.4561 </r>
       <r>  13.4229   0.4796  12.5287 </r>
       <r>  13.5427   0.4613  12.5851 </r>
       <r>  13.6626   0.4417  12.6392 </r>
       <r>  13.7824   0.4207  12.6909 </r>
       <r>  13.9022   0.3804  12.7388 </r>
       <r>  14.0221   0.3591  12.7832 </r>
       <r>  14.1419   0.3375  12.8249 </r>
       <r>  14.2617   0.3154  12.8640 </r>
       <r>  14.3815   0.2939  12.9004 </r>
       <r>  14.5014   0.2861  12.9352 </r>
       <r>  14.6212   0.2780  12.9690 </r>
       <r>  14.7410   0.2415  13.0072 </r>
       <r>  14.8609   0.2337  13.0357 </r>
       <r>  14.9807   0.2262  13.0632 </r>
       <r>  15.1005   0.2190  13.0899 </r>
       <r>  15.2203   0.2121  13.1157 </r>
       <r>  15.3402   0.2055  13.1407 </r>
       <r>  15.4600   0.1991  13.1650 </r>
       <r>  15.5798   0.1931  13.1885 </r>
       <r>  15.6996   0.1873  13.2113 </r>
       <r>  15.8195   0.1818  13.2334 </r>
       <r>  15.9393   0.1714  13.2543 </r>
       <r>  16.0591   0.2586  13.2941 </r>
       <r>  16.1790   0.2806  13.3264 </r>
       <r>  16.2988   0.3039  13.3614 </r>
       <r>  16.4186   0.3287  13.3993 </r>
       <r>  16.5384   0.3548  13.4402 </r>
       <r>  16.6583   0.4228  13.4865 </r>
       <r>  16.7781   0.5015  13.5418 </r>
       <r>  16.8979   0.3890  13.6018 </r>
       <r>  17.0178   0.3872  13.6483 </r>
       <r>  17.1376   0.3847  13.6946 </r>
       <r>  17.2574   0.3815  13.7405 </r>
       <r>  17.3772   0.3777  13.7860 </r>
       <r>  17.4971   0.3732  13.8310 </r>
       <r>  17.6169   0.3680  13.8754 </r>
       <r>  17.7367   0.3367  13.9253 </r>
       <r>  17.8565   0.3304  13.9652 </r>
       <r>  17.9764   0.3259  14.0045 </r>
       <r>  18.0962   0.3160  14.0426 </r>
       <r>  18.2160   0.3149  14.0804 </r>
       <r>  18.3359   0.3137  14.1180 </r>
       <r>  18.4557   0.3127  14.1556 </r>
       <r>  18.5755   0.3118  14.1930 </r>
       <r>  18.6953   0.6127  14.2751 </r>
       <r>  18.8152   0.6958  14.3534 </r>
       <r>  18.9350   0.4714  14.4223 </r>
       <r>  19.0548   0.4773  14.4791 </r>
       <r>  19.1747   0.4831  14.5367 </r>
       <r>  19.2945   0.4878  14.5949 </r>
       <r>  19.4143   0.4910  14.6535 </r>
       <r>  19.5341   0.4936  14.7125 </r>
       <r>  19.6540   0.4957  14.7718 </r>
       <r>  19.7738   0.4966  14.8311 </r>
       <r>  19.8936   0.5006  14.8909 </r>
       <r>  20.0134   0.4993  14.9511 </r>
       <r>  20.1333   0.4951  15.0107 </r>
       <r>  20.2531   0.4898  15.0698 </r>
       <r>  20.3729   0.4851  15.1281 </r>
       <r>  20.4928   0.4872  15.1864 </r>
       <r>  20.6126   0.4892  15.2448 </r>
       <r>  20.7324   0.4929  15.3037 </r>
       <r>  20.8522   0.5002  15.3631 </r>
       <r>  20.9721   0.5094  15.4236 </r>
       <r>  21.0919   0.5181  15.4852 </r>
       <r>  21.2117   0.5292  15.5478 </r>
       <r>  21.3316   0.5462  15.6122 </r>
       <r>  21.4514   0.5679  15.6789 </r>
       <r>  21.5712   0.5550  15.7476 </r>
       <r>  21.6910   0.5563  15.8141 </r>
       <r>  21.8109   0.5603  15.8810 </r>
       <r>  21.9307   0.5550  15.9483 </r>
       <r>  22.0505   0.5526  16.0143 </r>
       <r>  22.1703   0.5653  16.0813 </r>
       <r>  22.2902   0.5782  16.1498 </r>
       <r>  22.4100   0.6840  16.2436 </r>
       <r>  22.5298   0.6281  16.3215 </r>
       <r>  22.6497   0.5935  16.3946 </r>
       <r>  22.7695   0.5642  16.4639 </r>
       <r>  22.8893   0.5403  16.5300 </r>
       <r>  23.0091   0.5219  16.5936 </r>
       <r>  23.1290   0.5312  16.6586 </r>
       <r>  23.2488   0.5185  16.7213 </r>
       <r>  23.3686   0.5344  16.7843 </r>
       <r>  23.4885   0.5423  16.8488 </r>
       <r>  23.6083   0.5685  16.9148 </r>
       <r>  23.7281   0.5191  16.9785 </r>
       <r>  23.8479   0.5354  17.0421 </r>
       <r>  23.9678   0.5147  17.1050 </r>
       <r>  24.0876   0.5453  17.1689 </r>
       <r>  24.2074   0.5285  17.2335 </r>
       <r>  24.3272   0.4651  17.2924 </r>
       <r>  24.4471   0.4289  17.3459 </r>
       <r>  24.5669   0.3950  17.3953 </r>
       <r>  24.6867   0.3634  17.4407 </r>
       <r>  24.8066   0.3341  17.4824 </r>
       <r>  24.9264   0.3072  17.5208 </r>
       <r>  25.0462   0.2630  17.5539 </r>
       <r>  25.1660   0.2442  17.5843 </r>
       <r>  25.2859   0.2242  17.6124 </r>
       <r>  25.4057   0.2238  17.6413 </r>
       <r>  25.5255   0.2233  17.6681 </r>
       <r>  25.6454   0.2222  17.6948 </r>
       <r>  25.7652   0.2119  17.7233 </r>
       <r>  25.8850   0.2115  17.7487 </r>
       <r>  26.0048   0.1901  17.7724 </r>
       <r>  26.1247   0.1755  17.7944 </r>
       <r>  26.2445   0.1582  17.8144 </r>
       <r>  26.3643   0.1395  17.8322 </r>
       <r>  26.4841   0.1275  17.8482 </r>
       <r>  26.6040   0.1177  17.8628 </r>
       <r>  26.7238   0.1105  17.8765 </r>
       <r>  26.8436   0.1045  17.8894 </r>
       <r>  26.9635   0.0988  17.9015 </r>
       <r>  27.0833   0.1493  17.9266 </r>
       <r>  27.2031   0.1267  17.9431 </r>
       <r>  27.3229   0.1054  17.9570 </r>
       <r>  27.4428   0.0853  17.9684 </r>
       <r>  27.5626   0.0665  17.9775 </r>
       <r>  27.6824   0.0489  17.9844 </r>
       <r>  27.8023   0.0226  17.9897 </r>
       <r>  27.9221   0.0188  17.9922 </r>
       <r>  28.0419   0.0153  17.9943 </r>
       <r>  28.1617   0.0122  17.9959 </r>
       <r>  28.2816   0.0095  17.9972 </r>
       <r>  28.4014   0.0071  17.9982 </r>
       <r>  28.5212   0.0050  17.9989 </r>
       <r>  28.6411   0.0033  17.9994 </r>
       <r>  28.7609   0.0020  17.9997 </r>
       <r>  28.8807   0.0010  17.9999 </r>
       <r>  29.0005   0.0003  18.0000 </r>
       <r>  29.1204   0.0000  18.0000 </r>
       <r>  29.2402   0.0000  18.0000 </r>
       <r>  29.3600   0.0000  18.0000 </r>
       <r>  29.4798   0.0000  18.0000 </r>
       <r>  29.5997   0.0000  18.0000 </r>
       <r>  29.7195   0.0000  18.0000 </r>
       <r>  29.8393   0.0000  18.0000 </r>
       <r>  29.9592   0.0000  18.0000 </r>
       <r>  30.0790   0.0000  18.0000 </r>
       <r>  30.1988   0.0000  18.0000 </r>
       <r>  30.3186   0.0000  18.0000 </r>
       <r>  30.4385   0.0000  18.0000 </r>
       <r>  30.5583   0.0000  18.0000 </r>
       <r>  30.6781   0.0000  18.0000 </r>
       <r>  30.7980   0.0000  18.0000 </r>
      </set>
     </set>
    </array>
   </total>
   <partial>
    <array>
     <dimension dim="1">gridpoints</dimension>
     <dimension dim="2">spin</dimension>
     <dimension dim="3">ion</dimension>
     <field>energy</field>
     <field>  s</field>
     <field> py</field>
     <field> pz</field>
     <field> px</field>
     <field>dxy</field>
     <field>dyz</field>
     <field>dz2</field>
     <field>dxz</field>
     <field>dx2</field>
     <set>
      <set comment="ion 1">
       <set comment="spin 1">
        <r>  -5.1504   0.0000   0.0000   0.0000   0.0000   0.0000   0.0000   0.0000   0.0000   0.0000 </r>
        <r>  -5.0306   0.0000   0.0000   0.0000   0.0000   0.0000   0.0000   0.0000   0.0000   0.0000 </r>
        <r>  -4.9107   0.0000   0.0000   0.0000   0.0000   0.0000   0.0000   0.0000   0.0000   0.0000 </r>
        <r>  -4.7909   0.0000   0.0000   0.0000   0.0000   0.0000   0.0000   0.0000   0.0000   0.0000 </r>
        <r>  -4.6711   0.0000   0.0000   0.0000   0.0000   0.0000   0.0000   0.0000   0.0000   0.0000 </r>
        <r>  -4.5513   0.0000   0.0000   0.0000   0.0000   0.0000   0.0000   0.0000   0.0000   0.0000 </r>
        <r>  -4.4314   0.0000   0.0000   0.0000   0.0000   0.0000   0.0000   0.0000   0.0000   0.0000 </r>
        <r>  -4.3116   0.0000   0.0000   0.0000   0.0000   0.0000   0.0000   0.0000   0.0000   0.0000 </r>
        <r>  -4.1918   0.0000   0.0000   0.0000   0.0000   0.0000   0.0000   0.0000   0.0000   0.0000 </r>
        <r>  -4.0719   0.0000   0.0000   0.0000   0.0000   0.0000   0.0000   0.0000   0.0000   0.0000 </r>
        <r>  -3.9521   0.0000   0.0000   0.0000   0.0000   0.0000   0.0000   0.0000   0.0000   0.0000 </r>
        <r>  -3.8323   0.0000   0.0000   0.0000   0.0000   0.0000   0.0000   0.0000   0.0000   0.0000 </r>
        <r>  -3.7125   0.0000   0.0000   0.0000   0.0000   0.0000   0.0000   0.0000   0.0000   0.0000 </r>
        <r>  -3.5926   0.0000   0.0000   0.0000   0.0000   0.0000   0.0000   0.0000   0.0000   0.0000 </r>
        <r>  -3.4728   0.0152   0.0001   0.0001   0.0003   0.0000   0.0000   0.0000   0.0000   0.0000 </r>
        <r>  -3.3530   0.0203   0.0002   0.0002   0.0005   0.0001   0.0001   0.0000   0.0001   0.0000 </r>
        <r>  -3.2331   0.0260   0.0002   0.0002   0.0008   0.0001   0.0001   0.0000   0.0001   0.0001 </r>
        <r>  -3.1133   0.0322   0.0003   0.0003   0.0010   0.0001   0.0002   0.0000   0.0001   0.0001 </r>
        <r>  -2.9935   0.0390   0.0004   0.0004   0.0013   0.0002   0.0002   0.0000   0.0002   0.0001 </r>
        <r>  -2.8737   0.0464   0.0006   0.0006   0.0017   0.0002   0.0003   0.0000   0.0002   0.0001 </r>
        <r>  -2.7538   0.0469   0.0009   0.0012   0.0017   0.0004   0.0007   0.0003   0.0003   0.0002 </r>
        <r>  -2.6340   0.0505   0.0011   0.0016   0.0018   0.0006   0.0009   0.0004   0.0005   0.0002 </r>
        <r>  -2.5142   0.0538   0.0012   0.0020   0.0020   0.0008   0.0011   0.0006   0.0006   0.0002 </r>
        <r>  -2.3944   0.0570   0.0014   0.0024   0.0022   0.0012   0.0014   0.0008   0.0008   0.0003 </r>
        <r>  -2.2745   0.0599   0.0015   0.0028   0.0024   0.0015   0.0017   0.0010   0.0010   0.0003 </r>
        <r>  -2.1547   0.0632   0.0017   0.0031   0.0027   0.0021   0.0021   0.0013   0.0013   0.0004 </r>
        <r>  -2.0349   0.0674   0.0020   0.0035   0.0031   0.0028   0.0027   0.0015   0.0017   0.0005 </r>
        <r>  -1.9150   0.0725   0.0023   0.0039   0.0036   0.0037   0.0034   0.0017   0.0022   0.0007 </r>
        <r>  -1.7952   0.0785   0.0026   0.0043   0.0042   0.0048   0.0044   0.0019   0.0029   0.0008 </r>
        <r>  -1.6754   0.0855   0.0029   0.0046   0.0049   0.0062   0.0056   0.0022   0.0038   0.0010 </r>
        <r>  -1.5556   0.0929   0.0032   0.0056   0.0056   0.0082   0.0074   0.0045   0.0052   0.0012 </r>
        <r>  -1.4357   0.0998   0.0035   0.0064   0.0063   0.0106   0.0094   0.0067   0.0067   0.0013 </r>
        <r>  -1.3159   0.1065   0.0038   0.0073   0.0070   0.0133   0.0117   0.0093   0.0085   0.0015 </r>
        <r>  -1.1961   0.1128   0.0040   0.0082   0.0076   0.0164   0.0143   0.0124   0.0104   0.0016 </r>
        <r>  -1.0762   0.1632   0.0060   0.0109   0.0111   0.0472   0.0470   0.0171   0.0364   0.0024 </r>
        <r>  -0.9564   0.1941   0.0066   0.0127   0.0116   0.0867   0.0902   0.0210   0.0694   0.0027 </r>
        <r>  -0.8366   0.1825   0.0065   0.0139   0.0118   0.0890   0.0915   0.0251   0.0633   0.0031 </r>
        <r>  -0.7168   0.1949   0.0072   0.0166   0.0122   0.1077   0.1008   0.1481   0.0653   0.0038 </r>
        <r>  -0.5969   0.2033   0.0081   0.0197   0.0124   0.1304   0.1118   0.2253   0.0669   0.0052 </r>
        <r>  -0.4771   0.2261   0.0096   0.0295   0.0129   0.1737   0.1259   0.3269   0.0655   0.0089 </r>
        <r>  -0.3573   0.2296   0.0118   0.0326   0.0149   0.3444   0.1510   0.3936   0.0669   0.0157 </r>
        <r>  -0.2375   0.2305   0.0150   0.0345   0.0174   0.4794   0.1888   0.4278   0.0710   0.0375 </r>
        <r>  -0.1176   0.1701   0.0154   0.0220   0.0204   0.5268   0.1869   0.3082   0.0638   0.0485 </r>
        <r>   0.0022   0.1383   0.0162   0.0181   0.0209   0.5728   0.1646   0.3041   0.0528   0.0525 </r>
        <r>   0.1220   0.1194   0.0180   0.0174   0.0216   0.5810   0.1666   0.3161   0.0472   0.0629 </r>
        <r>   0.2419   0.1222   0.0217   0.0180   0.0266   0.6263   0.2032   0.3334   0.0480   0.0772 </r>
        <r>   0.3617   0.0677   0.0226   0.0167   0.0208   0.5499   0.1383   0.3276   0.0285   0.0882 </r>
        <r>   0.4815   0.0222   0.0141   0.0104   0.0142   0.3908   0.0913   0.1748   0.0141   0.0405 </r>
        <r>   0.6013   0.0056   0.0114   0.0083   0.0123   0.3277   0.0936   0.1222   0.0110   0.0267 </r>
        <r>   0.7212   0.0070   0.0150   0.0105   0.0148   0.3383   0.1270   0.1614   0.0154   0.0375 </r>
        <r>   0.8410   0.0113   0.0278   0.0292   0.0229   0.3740   0.3926   0.2915   0.0294   0.0714 </r>
        <r>   0.9608   0.0140   0.0341   0.0193   0.0283   0.3652   0.2915   0.3903   0.0452   0.0982 </r>
        <r>   1.0807   0.0145   0.0298   0.0143   0.0244   0.3262   0.2325   0.3766   0.0682   0.1303 </r>
        <r>   1.2005   0.0168   0.0248   0.0167   0.0218   0.3168   0.3161   0.3343   0.1135   0.1493 </r>
        <r>   1.3203   0.0198   0.0214   0.0189   0.0214   0.3249   0.3601   0.3121   0.1570   0.1671 </r>
        <r>   1.4401   0.0167   0.0155   0.0139   0.0160   0.2634   0.3290   0.2597   0.1472   0.1518 </r>
        <r>   1.5600   0.0256   0.0192   0.0233   0.0188   0.2164   0.4188   0.2371   0.1412   0.1893 </r>
        <r>   1.6798   0.0316   0.0199   0.0322   0.0241   0.2333   0.4362   0.2273   0.1279   0.2150 </r>
        <r>   1.7996   0.0366   0.0205   0.0416   0.0300   0.2545   0.4451   0.2128   0.1185   0.2315 </r>
        <r>   1.9194   0.0481   0.0241   0.0554   0.0393   0.3006   0.5023   0.2271   0.1157   0.2419 </r>
        <r>   2.0393   0.0472   0.0196   0.0613   0.0299   0.3690   0.3933   0.3662   0.1822   0.2529 </r>
        <r>   2.1591   0.0490   0.0230   0.0686   0.0324   0.5937   0.5213   0.5629   0.3881   0.4806 </r>
        <r>   2.2789   0.0451   0.0201   0.0679   0.0326   0.6066   0.6124   0.4799   0.4492   0.3647 </r>
        <r>   2.3988   0.0401   0.0151   0.0612   0.0274   0.5305   0.4206   0.4194   0.4980   0.2358 </r>
        <r>   2.5186   0.0308   0.0062   0.0401   0.0132   0.2072   0.2290   0.2051   0.2716   0.0707 </r>
        <r>   2.6384   0.0301   0.0076   0.0389   0.0134   0.1795   0.2044   0.1541   0.2803   0.0906 </r>
        <r>   2.7582   0.0243   0.0104   0.0347   0.0152   0.1648   0.2002   0.1243   0.2936   0.1291 </r>
        <r>   2.8781   0.0307   0.0236   0.0452   0.0308   0.1133   0.2796   0.1626   0.2726   0.2496 </r>
        <r>   2.9979   0.0306   0.0310   0.0519   0.0390   0.1055   0.3172   0.2017   0.2938   0.3643 </r>
        <r>   3.1177   0.0238   0.0237   0.0451   0.0301   0.0852   0.2635   0.2105   0.2882   0.4421 </r>
        <r>   3.2376   0.0192   0.0180   0.0395   0.0224   0.0603   0.2174   0.1679   0.2503   0.4503 </r>
        <r>   3.3574   0.0166   0.0152   0.0363   0.0186   0.0468   0.1896   0.1483   0.2258   0.4595 </r>
        <r>   3.4772   0.0220   0.0143   0.0347   0.0189   0.0664   0.2048   0.3798   0.3113   0.7831 </r>
        <r>   3.5970   0.0204   0.0125   0.0320   0.0171   0.0760   0.1654   0.2897   0.2963   0.7463 </r>
        <r>   3.7169   0.0221   0.0117   0.0315   0.0157   0.0621   0.1462   0.2666   0.2702   0.7848 </r>
        <r>   3.8367   0.0174   0.0098   0.0262   0.0123   0.0588   0.1345   0.2282   0.2496   0.5273 </r>
        <r>   3.9565   0.0160   0.0087   0.0241   0.0109   0.0605   0.1314   0.2645   0.2494   0.5053 </r>
        <r>   4.0763   0.0158   0.0090   0.0231   0.0107   0.0665   0.1427   0.2453   0.2545   0.5328 </r>
        <r>   4.1962   0.0149   0.0076   0.0204   0.0093   0.0769   0.1322   0.1901   0.2616   0.5063 </r>
        <r>   4.3160   0.0143   0.0065   0.0184   0.0085   0.0933   0.1307   0.1724   0.3044   0.5024 </r>
        <r>   4.4358   0.0265   0.0085   0.0193   0.0170   0.2626   0.1657   0.2895   0.4953   0.6178 </r>
        <r>   4.5557   0.0124   0.0045   0.0143   0.0063   0.1104   0.1355   0.1483   0.3733   0.4857 </r>
        <r>   4.6755   0.0122   0.0040   0.0129   0.0059   0.1249   0.1397   0.1542   0.4156   0.4585 </r>
        <r>   4.7953   0.0126   0.0039   0.0121   0.0059   0.1377   0.1479   0.1570   0.4630   0.4318 </r>
        <r>   4.9151   0.0135   0.0039   0.0094   0.0056   0.1396   0.1463   0.1446   0.5005   0.3588 </r>
        <r>   5.0350   0.0154   0.0040   0.0107   0.0072   0.2122   0.2393   0.2086   1.0037   0.3892 </r>
        <r>   5.1548   0.0159   0.0041   0.0108   0.0069   0.2384   0.2755   0.2382   1.1273   0.4249 </r>
        <r>   5.2746   0.0148   0.0041   0.0099   0.0058   0.1783   0.2530   0.1838   0.9892   0.3365 </r>
        <r>   5.3945   0.0149   0.0042   0.0094   0.0049   0.0644   0.2217   0.0777   0.7482   0.2014 </r>
        <r>   5.5143   0.0160   0.0045   0.0099   0.0048   0.0441   0.1976   0.0612   0.6073   0.1400 </r>
        <r>   5.6341   0.0170   0.0047   0.0102   0.0042   0.0294   0.0602   0.0518   0.0169   0.0557 </r>
        <r>   5.7539   0.0185   0.0052   0.0113   0.0048   0.0291   0.0623   0.0500   0.0171   0.0528 </r>
        <r>   5.8738   0.0202   0.0057   0.0125   0.0056   0.0290   0.0637   0.0475   0.0171   0.0495 </r>
        <r>   5.9936   0.0221   0.0062   0.0134   0.0067   0.0284   0.0614   0.0405   0.0164   0.0443 </r>
        <r>   6.1134   0.0236   0.0067   0.0145   0.0075   0.0287   0.0604   0.0383   0.0156   0.0394 </r>
        <r>   6.2333   0.0244   0.0070   0.0156   0.0082   0.0295   0.0591   0.0375   0.0145   0.0343 </r>
        <r>   6.3531   0.0254   0.0074   0.0165   0.0089   0.0302   0.0584   0.0369   0.0145   0.0331 </r>
        <r>   6.4729   0.0263   0.0078   0.0174   0.0096   0.0309   0.0576   0.0363   0.0145   0.0319 </r>
        <r>   6.5927   0.0273   0.0082   0.0184   0.0103   0.0316   0.0568   0.0356   0.0145   0.0306 </r>
        <r>   6.7126   0.0283   0.0087   0.0194   0.0110   0.0322   0.0560   0.0349   0.0144   0.0294 </r>
        <r>   6.8324   0.0292   0.0091   0.0204   0.0117   0.0327   0.0552   0.0342   0.0143   0.0281 </r>
        <r>   6.9522   0.0301   0.0095   0.0215   0.0123   0.0332   0.0543   0.0334   0.0142   0.0268 </r>
        <r>   7.0720   0.0311   0.0099   0.0225   0.0130   0.0336   0.0535   0.0326   0.0141   0.0255 </r>
        <r>   7.1919   0.0339   0.0123   0.0258   0.0164   0.0380   0.0515   0.0340   0.0143   0.0237 </r>
        <r>   7.3117   0.0343   0.0109   0.0255   0.0141   0.0332   0.0480   0.0304   0.0130   0.0186 </r>
        <r>   7.4315   0.0351   0.0110   0.0266   0.0142   0.0325   0.0473   0.0299   0.0129   0.0172 </r>
        <r>   7.5514   0.0360   0.0111   0.0277   0.0142   0.0318   0.0467   0.0295   0.0127   0.0159 </r>
        <r>   7.6712   0.0368   0.0111   0.0288   0.0142   0.0310   0.0461   0.0290   0.0126   0.0146 </r>
        <r>   7.7910   0.0375   0.0112   0.0298   0.0142   0.0301   0.0457   0.0285   0.0124   0.0135 </r>
        <r>   7.9108   0.0381   0.0111   0.0308   0.0141   0.0292   0.0454   0.0279   0.0121   0.0127 </r>
        <r>   8.0307   0.0387   0.0111   0.0318   0.0140   0.0283   0.0452   0.0273   0.0118   0.0120 </r>
        <r>   8.1505   0.0393   0.0110   0.0327   0.0139   0.0273   0.0450   0.0266   0.0116   0.0114 </r>
        <r>   8.2703   0.0399   0.0109   0.0336   0.0138   0.0264   0.0447   0.0260   0.0113   0.0107 </r>
        <r>   8.3902   0.0406   0.0108   0.0345   0.0137   0.0254   0.0446   0.0253   0.0110   0.0102 </r>
        <r>   8.5100   0.0420   0.0107   0.0396   0.0136   0.0244   0.0456   0.0249   0.0113   0.0096 </r>
        <r>   8.6298   0.0428   0.0105   0.0401   0.0134   0.0234   0.0454   0.0242   0.0111   0.0091 </r>
        <r>   8.7496   0.0458   0.0111   0.0416   0.0143   0.0229   0.0475   0.0241   0.0116   0.0096 </r>
        <r>   8.8695   0.0475   0.0110   0.0421   0.0142   0.0216   0.0476   0.0231   0.0115   0.0093 </r>
        <r>   8.9893   0.0491   0.0109   0.0425   0.0142   0.0204   0.0476   0.0221   0.0113   0.0090 </r>
        <r>   9.1091   0.0507   0.0108   0.0429   0.0141   0.0193   0.0476   0.0213   0.0112   0.0087 </r>
        <r>   9.2289   0.0523   0.0107   0.0433   0.0141   0.0183   0.0474   0.0204   0.0111   0.0084 </r>
        <r>   9.3488   0.0554   0.0108   0.0443   0.0145   0.0179   0.0484   0.0203   0.0111   0.0082 </r>
        <r>   9.4686   0.0581   0.0106   0.0447   0.0149   0.0177   0.0485   0.0199   0.0110   0.0080 </r>
        <r>   9.5884   0.0597   0.0102   0.0441   0.0150   0.0174   0.0473   0.0189   0.0108   0.0076 </r>
        <r>   9.7083   0.0602   0.0094   0.0425   0.0149   0.0171   0.0446   0.0174   0.0105   0.0072 </r>
        <r>   9.8281   0.0596   0.0083   0.0399   0.0146   0.0168   0.0404   0.0153   0.0100   0.0066 </r>
        <r>   9.9479   0.0595   0.0076   0.0385   0.0145   0.0166   0.0380   0.0142   0.0096   0.0062 </r>
        <r>  10.0677   0.0593   0.0070   0.0373   0.0145   0.0164   0.0357   0.0132   0.0092   0.0059 </r>
        <r>  10.1876   0.0589   0.0065   0.0362   0.0144   0.0163   0.0337   0.0122   0.0089   0.0056 </r>
        <r>  10.3074   0.0635   0.0061   0.0363   0.0156   0.0174   0.0334   0.0116   0.0089   0.0057 </r>
        <r>  10.4272   0.0658   0.0057   0.0365   0.0161   0.0183   0.0321   0.0109   0.0089   0.0056 </r>
        <r>  10.5471   0.0701   0.0054   0.0361   0.0170   0.0203   0.0297   0.0102   0.0093   0.0054 </r>
        <r>  10.6669   0.0652   0.0046   0.0320   0.0162   0.0189   0.0261   0.0089   0.0084   0.0051 </r>
        <r>  10.7867   0.0604   0.0039   0.0281   0.0154   0.0177   0.0228   0.0077   0.0076   0.0048 </r>
        <r>  10.9065   0.0559   0.0033   0.0244   0.0147   0.0165   0.0197   0.0066   0.0067   0.0046 </r>
        <r>  11.0264   0.0515   0.0028   0.0209   0.0140   0.0153   0.0167   0.0055   0.0060   0.0044 </r>
[...]
       </set>
       <set comment="band 6">
        <r>  0.1142  0.0027  0.3748  0.0006  0.0000  0.2234  0.0433  0.0321  0.0001 </r>
       </set>
       <set comment="band 7">
        <r>  0.4934  0.0461  0.0919  0.0407  0.0217  0.0045  0.0412  0.0000  0.0168 </r>
       </set>
       <set comment="band 8">
        <r>  0.0429  0.0824  0.0288  0.2971  0.0627  0.0084  0.1851  0.0096  0.0005 </r>
       </set>
       <set comment="band 9">
        <r>  0.0004  0.2552  0.0030  0.1897  0.0202  0.0058  0.1012  0.0024  0.0558 </r>
       </set>
      </set>
      <set comment="kpoint 14">
       <set comment="band 1">
        <r>  0.0508  0.0013  0.0039  0.0091  0.4786  0.0144  0.2991  0.0086  0.0054 </r>
       </set>
       <set comment="band 2">
        <r>  0.0146  0.0493  0.0038  0.0433  0.1772  0.0623  0.4116  0.0183  0.0555 </r>
       </set>
       <set comment="band 3">
        <r>  0.0010  0.0069  0.0891  0.0097  0.0931  0.5654  0.0116  0.1003  0.0000 </r>
       </set>
       <set comment="band 4">
        <r>  0.0043  0.0017  0.0023  0.0102  0.0045  0.0037  0.0549  0.0668  0.7878 </r>
       </set>
       <set comment="band 5">
        <r>  0.0023  0.0001  0.0025  0.0000  0.0077  0.1850  0.0039  0.7085  0.0610 </r>
       </set>
       <set comment="band 6">
        <r>  0.3958  0.0448  0.0044  0.1035  0.1954  0.0015  0.0190  0.0076  0.0168 </r>
       </set>
       <set comment="band 7">
        <r>  0.1208  0.0478  0.2640  0.0526  0.0032  0.1361  0.0985  0.0649  0.0002 </r>
       </set>
       <set comment="band 8">
        <r>  0.1261  0.0563  0.2148  0.0895  0.0071  0.0655  0.1574  0.0395  0.0011 </r>
       </set>
       <set comment="band 9">
        <r>  0.0138  0.1382  0.0000  0.2382  0.0556  0.0010  0.0692  0.0013  0.1398 </r>
       </set>
      </set>
      <set comment="kpoint 15">
       <set comment="band 1">
        <r>  0.1912  0.0025  0.0045  0.0234  0.2103  0.2520  0.0009  0.1429  0.0075 </r>
       </set>
       <set comment="band 2">
        <r>  0.0002  0.0094  0.0001  0.0001  0.1906  0.0973  0.4170  0.0024  0.1884 </r>
       </set>
       <set comment="band 3">
        <r>  0.0024  0.0029  0.0158  0.0005  0.0910  0.0008  0.0876  0.2736  0.4505 </r>
       </set>
       <set comment="band 4">
        <r>  0.0406  0.0523  0.0435  0.0618  0.0510  0.4230  0.1507  0.0128  0.0000 </r>
       </set>
       <set comment="band 5">
        <r>  0.0005  0.0009  0.0034  0.0068  0.0708  0.0741  0.1054  0.4487  0.2580 </r>
       </set>
       <set comment="band 6">
        <r>  0.1167  0.0539  0.0398  0.0947  0.3230  0.0125  0.1707  0.0166  0.0279 </r>
       </set>
       <set comment="band 7">
        <r>  0.3267  0.0647  0.0918  0.0450  0.0532  0.1125  0.0174  0.0851  0.0007 </r>
       </set>
       <set comment="band 8">
        <r>  0.0058  0.0286  0.1515  0.0001  0.0147  0.0710  0.0808  0.0302  0.0081 </r>
       </set>
       <set comment="band 9">
        <r>  0.0367  0.0186  0.1512  0.1691  0.0082  0.0113  0.0004  0.0366  0.0661 </r>
       </set>
      </set>
      <set comment="kpoint 16">
       <set comment="band 1">
        <r>  0.0675  0.0014  0.0024  0.0014  0.0215  0.0000  0.7271  0.0000  0.0000 </r>
       </set>
       <set comment="band 2">
        <r>  0.0007  0.0032  0.0000  0.0032  0.8637  0.0001  0.0177  0.0001  0.0000 </r>
       </set>
       <set comment="band 3">
        <r>  0.0105  0.0006  0.1027  0.0006  0.0005  0.3986  0.0049  0.3986  0.0000 </r>
       </set>
       <set comment="band 4">
        <r>  0.0000  0.0021  0.0000  0.0021  0.0000  0.0400  0.0000  0.0400  0.8919 </r>
       </set>
       <set comment="band 5">
        <r>  0.0000  0.0004  0.0000  0.0004  0.0000  0.4508  0.0000  0.4508  0.0836 </r>
       </set>
       <set comment="band 6">
        <r>  0.0685  0.0008  0.4547  0.0008  0.0000  0.0944  0.0336  0.0944  0.0000 </r>
       </set>
       <set comment="band 7">
        <r>  0.5476  0.0138  0.0784  0.0138  0.0023  0.0001  0.1755  0.0001  0.0000 </r>
       </set>
       <set comment="band 8">
        <r>  0.0052  0.2346  0.0059  0.2346  0.0221  0.0060  0.1033  0.0060  0.0000 </r>
       </set>
       <set comment="band 9">
        <r>  0.0000  0.2689  0.0000  0.2689  0.0000  0.0048  0.0000  0.0048  0.0170 </r>
       </set>
      </set>
      <set comment="kpoint 17">
       <set comment="band 1">
        <r>  0.0843  0.0089  0.0208  0.0013  0.2250  0.0089  0.4744  0.0062  0.0020 </r>
       </set>
       <set comment="band 2">
        <r>  0.0099  0.0125  0.0034  0.0223  0.6142  0.0010  0.1953  0.0093  0.0016 </r>
       </set>
       <set comment="band 3">
        <r>  0.0795  0.0014  0.0906  0.0001  0.0162  0.5374  0.0583  0.0253  0.0624 </r>
       </set>
       <set comment="band 4">
        <r>  0.0051  0.0053  0.0206  0.0047  0.0072  0.0010  0.0233  0.2856  0.5912 </r>
       </set>
       <set comment="band 5">
        <r>  0.0004  0.0007  0.0055  0.0059  0.0101  0.0781  0.0080  0.5906  0.2732 </r>
       </set>
       <set comment="band 6">
        <r>  0.1708  0.0155  0.1699  0.0040  0.0009  0.3401  0.1073  0.0305  0.0215 </r>
       </set>
       <set comment="band 7">
        <r>  0.2808  0.1321  0.1044  0.0952  0.0396  0.0097  0.0000  0.0160  0.0186 </r>
       </set>
       <set comment="band 8">
        <r>  0.0681  0.0072  0.0854  0.3523  0.0657  0.0014  0.0579  0.0594  0.0122 </r>
       </set>
       <set comment="band 9">
        <r>  0.0174  0.1831  0.0852  0.0457  0.0053  0.0473  0.2471  0.0026  0.0219 </r>
       </set>
      </set>
      <set comment="kpoint 18">
       <set comment="band 1">
        <r>  0.3073  0.0018  0.0835  0.0018  0.0138  0.0060  0.3290  0.0060  0.0000 </r>
       </set>
       <set comment="band 2">
        <r>  0.0028  0.0031  0.0012  0.0031  0.8704  0.0037  0.0096  0.0037  0.0000 </r>
       </set>
       <set comment="band 3">
        <r>  0.1076  0.0011  0.0692  0.0011  0.0074  0.1342  0.4183  0.1342  0.0000 </r>
       </set>
       <set comment="band 4">
        <r>  0.0000  0.0079  0.0000  0.0079  0.0000  0.3606  0.0000  0.3606  0.2121 </r>
       </set>
       <set comment="band 5">
        <r>  0.0650  0.0095  0.0478  0.0095  0.0069  0.3207  0.1357  0.3207  0.0000 </r>
       </set>
       <set comment="band 6">
        <r>  0.0000  0.0010  0.0000  0.0010  0.0000  0.1069  0.0000  0.1069  0.7617 </r>
       </set>
       <set comment="band 7">
        <r>  0.1081  0.1672  0.0623  0.1672  0.0289  0.0601  0.0039  0.0601  0.0000 </r>
       </set>
       <set comment="band 8">
        <r>  0.0000  0.2353  0.0000  0.2353  0.0000  0.0775  0.0000  0.0775  0.0079 </r>
       </set>
       <set comment="band 9">
        <r>  0.0580  0.0027  0.1868  0.0027  0.0000  0.0029  0.3339  0.0029  0.0000 </r>
       </set>
      </set>
      <set comment="kpoint 19">
       <set comment="band 1">
        <r>  0.5214  0.0210  0.0210  0.0210  0.0453  0.0453  0.0000  0.0453  0.0000 </r>
       </set>
       <set comment="band 2">
        <r>  0.0499  0.0269  0.0269  0.0269  0.2457  0.2457  0.0000  0.2457  0.0000 </r>
       </set>
       <set comment="band 3">
        <r>  0.0000  0.0004  0.0002  0.0011  0.0634  0.4283  0.0417  0.1623  0.2449 </r>
       </set>
       <set comment="band 4">
        <r>  0.0000  0.0007  0.0010  0.0000  0.3726  0.0077  0.2449  0.2737  0.0417 </r>
       </set>
       <set comment="band 5">
        <r>  0.0000  0.0010  0.0011  0.0000  0.1515  0.0003  0.5200  0.1396  0.1466 </r>
       </set>
       <set comment="band 6">
        <r>  0.0000  0.0004  0.0003  0.0014  0.0427  0.1940  0.1466  0.0547  0.5200 </r>
       </set>
       <set comment="band 7">
        <r>  0.1293  0.0869  0.0869  0.0869  0.0710  0.0710  0.0000  0.0710  0.0000 </r>
       </set>
       <set comment="band 8">
        <r>  0.0000  0.0062  0.0062  0.0062  0.0388  0.0388  0.0000  0.0388  0.0000 </r>
       </set>
       <set comment="band 9">
        <r>  0.0000  0.0966  0.2444  0.0338  0.1357  0.0189  0.0390  0.0539  0.0010 </r>
       </set>
      </set>
      <set comment="kpoint 20">
       <set comment="band 1">
        <r>  0.3655  0.0456  0.0456  0.0004  0.0491  0.2009  0.0010  0.0491  0.0030 </r>
       </set>
       <set comment="band 2">
        <r>  0.0303  0.0097  0.0097  0.0451  0.3733  0.0360  0.0008  0.3733  0.0024 </r>
       </set>
       <set comment="band 3">
        <r>  0.0137  0.0214  0.0214  0.0018  0.0016  0.2498  0.1436  0.0016  0.4308 </r>
       </set>
       <set comment="band 4">
        <r>  0.0000  0.0011  0.0011  0.0000  0.1520  0.0000  0.4738  0.1520  0.1579 </r>
       </set>
       <set comment="band 5">
        <r>  0.0000  0.0010  0.0010  0.0000  0.3236  0.0000  0.2259  0.3236  0.0753 </r>
       </set>
       <set comment="band 6">
        <r>  0.0791  0.0237  0.0237  0.0011  0.0006  0.4571  0.0898  0.0006  0.2693 </r>
       </set>
       <set comment="band 7">
        <r>  0.2010  0.1058  0.1058  0.0714  0.0441  0.0669  0.0103  0.0441  0.0310 </r>
       </set>
       <set comment="band 8">
        <r>  0.0184  0.0192  0.0192  0.3060  0.1506  0.0121  0.0064  0.1506  0.0193 </r>
       </set>
       <set comment="band 9">
        <r>  0.0226  0.0640  0.0639  0.0203  0.0002  0.0010  0.0092  0.0002  0.0276 </r>
       </set>
      </set>
      <set comment="kpoint 21">
       <set comment="band 1">
        <r>  0.1195  0.0138  0.0138  0.0078  0.0505  0.5336  0.0178  0.0505  0.0533 </r>
       </set>
       <set comment="band 2">
        <r>  0.0100  0.0259  0.0259  0.0152  0.1131  0.0074  0.1363  0.1131  0.4089 </r>
       </set>
       <set comment="band 3">
        <r>  0.0140  0.0353  0.0353  0.0638  0.2300  0.1041  0.0339  0.2300  0.1018 </r>
       </set>
       <set comment="band 4">
        <r>  0.0000  0.0047  0.0047  0.0000  0.0587  0.0000  0.6061  0.0587  0.2020 </r>
       </set>
       <set comment="band 5">
        <r>  0.0000  0.0005  0.0005  0.0000  0.4223  0.0000  0.0880  0.4223  0.0293 </r>
       </set>
       <set comment="band 6">
        <r>  0.2736  0.0630  0.0630  0.0070  0.0004  0.3285  0.0274  0.0004  0.0821 </r>
       </set>
       <set comment="band 7">
        <r>  0.2233  0.0688  0.0688  0.1521  0.0765  0.0042  0.0253  0.0765  0.0760 </r>
       </set>
       <set comment="band 8">
        <r>  0.0742  0.0455  0.0455  0.3024  0.0952  0.0002  0.0216  0.0952  0.0649 </r>
       </set>
       <set comment="band 9">
        <r>  0.0189  0.0902  0.0054  0.0034  0.0000  0.1215  0.0014  0.0000  0.0844 </r>
       </set>
      </set>
      <set comment="kpoint 22">
       <set comment="band 1">
        <r>  0.0909  0.0003  0.0003  0.0194  0.0345  0.4525  0.0555  0.0345  0.1664 </r>
       </set>
       <set comment="band 2">
        <r>  0.0023  0.0330  0.0330  0.0013  0.0216  0.2247  0.1279  0.0216  0.3838 </r>
       </set>
       <set comment="band 3">
        <r>  0.0667  0.0026  0.0026  0.0949  0.2560  0.1680  0.0056  0.2560  0.0168 </r>
       </set>
       <set comment="band 4">
        <r>  0.0000  0.0058  0.0058  0.0000  0.1657  0.0000  0.4490  0.1657  0.1497 </r>
       </set>
       <set comment="band 5">
        <r>  0.0000  0.0000  0.0000  0.0000  0.3171  0.0000  0.2627  0.3171  0.0876 </r>
       </set>
       <set comment="band 6">
        <r>  0.1597  0.0270  0.0270  0.1792  0.1595  0.0047  0.0314  0.1595  0.0942 </r>
       </set>
       <set comment="band 7">
        <r>  0.3079  0.1086  0.1086  0.0557  0.0224  0.0979  0.0017  0.0224  0.0051 </r>
       </set>
       <set comment="band 8">
        <r>  0.0798  0.0448  0.0448  0.2154  0.0318  0.0075  0.0616  0.0318  0.1848 </r>
       </set>
       <set comment="band 9">
        <r>  0.0000  0.2493  0.2494  0.0000  0.0193  0.0000  0.0620  0.0193  0.0206 </r>
       </set>
      </set>
      <set comment="kpoint 23">
       <set comment="band 1">
        <r>  0.2175  0.0002  0.0438  0.0002  0.2835  0.1024  0.0665  0.1024  0.0000 </r>
       </set>
       <set comment="band 2">
        <r>  0.0147  0.0295  0.0096  0.0295  0.1148  0.0450  0.5675  0.0450  0.0000 </r>
       </set>
       <set comment="band 3">
        <r>  0.0744  0.0093  0.0468  0.0093  0.4529  0.1012  0.0844  0.1012  0.0000 </r>
       </set>
       <set comment="band 4">
        <r>  0.0000  0.0044  0.0000  0.0044  0.0000  0.2248  0.0000  0.2248  0.4805 </r>
       </set>
       <set comment="band 5">
        <r>  0.0000  0.0006  0.0000  0.0006  0.0000  0.2522  0.0000  0.2522  0.4766 </r>
       </set>
       <set comment="band 6">
        <r>  0.1117  0.0256  0.0905  0.0256  0.0261  0.2029  0.1927  0.2029  0.0000 </r>
       </set>
       <set comment="band 7">
        <r>  0.2475  0.1088  0.0656  0.1088  0.0847  0.0588  0.0080  0.0588  0.0000 </r>
       </set>
       <set comment="band 8">
        <r>  0.0149  0.0006  0.1104  0.0006  0.0157  0.0048  0.1907  0.0048  0.0000 </r>
       </set>
       <set comment="band 9">
        <r>  0.0000  0.2387  0.0000  0.2398  0.0000  0.0503  0.0000  0.0505  0.0454 </r>
       </set>
      </set>
      <set comment="kpoint 24">
       <set comment="band 1">
        <r>  0.0583  0.0181  0.0238  0.0153  0.3368  0.0520  0.3016  0.0263  0.0146 </r>
       </set>
       <set comment="band 2">
        <r>  0.0034  0.0246  0.0006  0.0238  0.2131  0.1177  0.3641  0.0230  0.0933 </r>
       </set>
       <set comment="band 3">
        <r>  0.0573  0.0055  0.0568  0.0188  0.2303  0.4628  0.0034  0.0013  0.0326 </r>
       </set>
       <set comment="band 4">
        <r>  0.0001  0.0038  0.0256  0.0015  0.0071  0.0166  0.1127  0.0975  0.6681 </r>
       </set>
       <set comment="band 5">
        <r>  0.0015  0.0003  0.0010  0.0065  0.0606  0.0346  0.0122  0.7746  0.0776 </r>
       </set>
       <set comment="band 6">
        <r>  0.2608  0.0259  0.1444  0.0051  0.0001  0.2908  0.0882  0.0115  0.0148 </r>
       </set>
       <set comment="band 7">
        <r>  0.2468  0.0866  0.0820  0.1400  0.0790  0.0005  0.0139  0.0295  0.0612 </r>
       </set>
       <set comment="band 8">
        <r>  0.0828  0.0310  0.0671  0.3419  0.1087  0.0014  0.0001  0.0567  0.0494 </r>
       </set>
       <set comment="band 9">
        <r>  0.0227  0.1121  0.1641  0.0023  0.0020  0.0609  0.2784  0.0002  0.0139 </r>
       </set>
      </set>
      <set comment="kpoint 25">
       <set comment="band 1">
        <r>  0.0137  0.0354  0.0011  0.0015  0.0000  0.0814  0.3805  0.0004  0.3243 </r>
       </set>
       <set comment="band 2">
        <r>  0.0039  0.0102  0.0553  0.0005  0.0108  0.7155  0.0538  0.0054  0.0192 </r>
       </set>
       <set comment="band 3">
        <r>  0.0132  0.0004  0.0013  0.0920  0.7320  0.0165  0.0076  0.0097  0.0069 </r>
       </set>
       <set comment="band 4">
        <r>  0.0238  0.0031  0.0017  0.0060  0.0133  0.0016  0.3861  0.0098  0.4867 </r>
       </set>
       <set comment="band 5">
        <r>  0.0012  0.0000  0.0015  0.0012  0.0249  0.0084  0.0029  0.9389  0.0031 </r>
       </set>
       <set comment="band 6">
        <r>  0.3953  0.0012  0.0031  0.1776  0.1453  0.0092  0.0003  0.0156  0.0579 </r>
       </set>
       <set comment="band 7">
        <r>  0.1654  0.0476  0.1317  0.2065  0.0625  0.0730  0.0534  0.0000  0.0009 </r>
       </set>
       <set comment="band 8">
        <r>  0.1173  0.0107  0.3072  0.1006  0.0278  0.0928  0.0030  0.0145  0.0818 </r>
       </set>
       <set comment="band 9">
        <r>  0.0001  0.2324  0.0757  0.0187  0.0114  0.0244  0.2523  0.0003  0.0786 </r>
       </set>
      </set>
      <set comment="kpoint 26">
       <set comment="band 1">
        <r>  0.0473  0.0000  0.0021  0.0000  0.3998  0.0023  0.4071  0.0023  0.0000 </r>
       </set>
       <set comment="band 2">
        <r>  0.0001  0.0370  0.0000  0.0370  0.4108  0.0031  0.3582  0.0031  0.0000 </r>
       </set>
       <set comment="band 3">
        <r>  0.0113  0.0001  0.1261  0.0001  0.0169  0.3607  0.0020  0.3607  0.0000 </r>
       </set>
       <set comment="band 4">
        <r>  0.0000  0.0064  0.0000  0.0064  0.0000  0.0507  0.0000  0.0507  0.8339 </r>
       </set>
       <set comment="band 5">
        <r>  0.0000  0.0001  0.0000  0.0001  0.0000  0.4366  0.0000  0.4366  0.1045 </r>
       </set>
       <set comment="band 6">
        <r>  0.3121  0.0004  0.2188  0.0004  0.0142  0.1161  0.0434  0.1161  0.0000 </r>
       </set>
       <set comment="band 7">
        <r>  0.2138  0.0963  0.1661  0.0963  0.0896  0.0188  0.0128  0.0188  0.0000 </r>
       </set>
       <set comment="band 8">
        <r>  0.1273  0.1042  0.0995  0.1042  0.0216  0.0214  0.2774  0.0214  0.0000 </r>
       </set>
       <set comment="band 9">
        <r>  0.0000  0.2546  0.0000  0.2546  0.0000  0.0022  0.0000  0.0022  0.1142 </r>
       </set>
      </set>
      <set comment="kpoint 27">
       <set comment="band 1">
        <r>  0.2350  0.0023  0.0023  0.0023  0.1959  0.1959  0.0000  0.1959  0.0000 </r>
       </set>
       <set comment="band 2">
        <r>  0.0000  0.0000  0.0000  0.0001  0.0671  0.2670  0.1339  0.0664  0.3993 </r>
       </set>
       <set comment="band 3">
        <r>  0.0000  0.0001  0.0001  0.0000  0.1999  0.0000  0.3993  0.2006  0.1339 </r>
       </set>
       <set comment="band 4">
        <r>  0.1116  0.1382  0.1382  0.1382  0.0496  0.0496  0.0000  0.0496  0.0000 </r>
       </set>
       <set comment="band 5">
        <r>  0.0000  0.0005  0.0006  0.0000  0.3053  0.0168  0.3369  0.2402  0.0767 </r>
       </set>
       <set comment="band 6">
        <r>  0.0000  0.0003  0.0001  0.0007  0.0695  0.3581  0.0767  0.1347  0.3369 </r>
       </set>
       <set comment="band 7">
        <r>  0.3575  0.0514  0.0514  0.0514  0.1057  0.1057  0.0000  0.1057  0.0000 </r>
       </set>
       <set comment="band 8">
        <r>  0.0001  0.0086  0.0087  0.0086  0.0040  0.0040  0.0000  0.0040  0.0000 </r>
       </set>
       <set comment="band 9">
        <r>  0.0000  0.0550  0.1190  0.2875  0.0090  0.0218  0.0003  0.0042  0.0005 </r>
       </set>
      </set>
      <set comment="kpoint 28">
       <set comment="band 1">
        <r>  0.1575  0.0072  0.0072  0.0145  0.1631  0.3270  0.0019  0.1631  0.0057 </r>
       </set>
       <set comment="band 2">
        <r>  0.0007  0.0082  0.0082  0.0020  0.0743  0.1161  0.1525  0.0743  0.4574 </r>
       </set>
       <set comment="band 3">
        <r>  0.0000  0.0026  0.0026  0.0000  0.1551  0.0000  0.4634  0.1551  0.1545 </r>
       </set>
       <set comment="band 4">
        <r>  0.0016  0.0557  0.0557  0.0641  0.1288  0.2586  0.0367  0.1288  0.1100 </r>
       </set>
       <set comment="band 5">
        <r>  0.0000  0.0005  0.0005  0.0000  0.3277  0.0000  0.2385  0.3277  0.0795 </r>
       </set>
       <set comment="band 6">
        <r>  0.0917  0.1111  0.1111  0.0901  0.0018  0.2284  0.0372  0.0018  0.1116 </r>
       </set>
       <set comment="band 7">
        <r>  0.4177  0.0153  0.0153  0.0693  0.1273  0.0513  0.0071  0.1273  0.0212 </r>
       </set>
       <set comment="band 8">
        <r>  0.0342  0.0288  0.0288  0.2414  0.0565  0.0016  0.0304  0.0565  0.0911 </r>
       </set>
       <set comment="band 9">
        <r>  0.0244  0.0577  0.0545  0.0581  0.0032  0.0724  0.0017  0.0031  0.0058 </r>
       </set>
      </set>
     </set>
    </set>
   </array>
  </projected>
 </calculation>
 <structure name="finalpos"">
  <crystal>
   <varray name="basis"">
    <v>       0.00000000      1.96195000      1.96195000</v>
    <v>       1.96195000      0.00000000      1.96195000</v>
    <v>       1.96195000      1.96195000      0.00000000</v>
   </varray>
   <i name="volume""     15.10406345</i>
   <varray name="rec_basis"">
    <v>      -0.25484849      0.25484849      0.25484849</v>
    <v>       0.25484849     -0.25484849      0.25484849</v>
    <v>       0.25484849      0.25484849     -0.25484849</v>
   </varray>
  </crystal>
  <varray name="positions"">
   <v>       0.00000000      0.00000000      0.00000000</v>
  </varray>
 </structure>
</modeling>
