   1   1   1   0
  0.1510406E+02  0.2774616E-09  0.2774616E-09  0.2774616E-09  0.5000000E-15
   1.0000000000000000E-004
  CAR 
 Au, FCC                                 
     30.39688287     -5.25383627  301      7.44543084      1.00000000
     -5.254  0.0000E+00  0.0000E+00
     -5.135  0.0000E+00  0.0000E+00
     -5.016  0.0000E+00  0.0000E+00
     -4.897  0.0000E+00  0.0000E+00
     -4.778  0.0000E+00  0.0000E+00
     -4.660  0.0000E+00  0.0000E+00
     -4.541  0.0000E+00  0.0000E+00
     -4.422  0.0000E+00  0.0000E+00
     -4.303  0.0000E+00  0.0000E+00
     -4.184  0.2153E-15  0.2559E-16
     -4.065  0.3250E-10  0.3862E-11
     -3.947  0.3088E-06  0.3670E-07
     -3.828  0.1956E-03  0.2328E-04
     -3.709  0.9168E-02  0.1113E-02
     -3.590  0.3859E-01  0.5699E-02
     -3.471  0.1715E-01  0.7737E-02
     -3.352  0.1024E-01  0.8954E-02
     -3.234  0.9083E-01  0.1975E-01
     -3.115  0.8811E-01  0.3022E-01
     -2.996  0.1430E-01  0.3192E-01
     -2.877  0.7600E-01  0.4095E-01
     -2.758  0.1015E+00  0.5301E-01
     -2.639  0.2087E-01  0.5549E-01
     -2.521  0.8995E-01  0.6618E-01
     -2.402  0.1402E+00  0.8284E-01
     -2.283  0.4107E-01  0.8772E-01
     -2.164  0.1697E+00  0.1079E+00
     -2.045  0.1953E+00  0.1311E+00
     -1.926  0.1037E+00  0.1434E+00
     -1.808  0.9645E-01  0.1549E+00
     -1.689  0.1907E-01  0.1571E+00
     -1.570  0.1426E+00  0.1741E+00
     -1.451  0.3346E+00  0.2139E+00
     -1.332  0.1815E+00  0.2354E+00
     -1.213  0.3051E+00  0.2717E+00
     -1.095  0.3817E+00  0.3170E+00
     -0.976  0.5473E+00  0.3821E+00
     -0.857  0.5563E+00  0.4482E+00
     -0.738  0.8730E+00  0.5519E+00
     -0.619  0.9358E+00  0.6631E+00
     -0.500  0.9587E+00  0.7771E+00
     -0.382  0.1601E+01  0.9673E+00
     -0.263  0.1505E+01  0.1146E+01
     -0.144  0.1463E+01  0.1320E+01
     -0.025  0.1891E+01  0.1545E+01
      0.094  0.1590E+01  0.1734E+01
      0.213  0.1149E+01  0.1870E+01
      0.331  0.1468E+01  0.2045E+01
      0.450  0.1605E+01  0.2235E+01
      0.569  0.1094E+01  0.2365E+01
      0.688  0.1191E+01  0.2507E+01
      0.807  0.7212E+00  0.2593E+01
      0.926  0.1218E+01  0.2737E+01
      1.044  0.1857E+01  0.2958E+01
      1.163  0.1471E+01  0.3133E+01
      1.282  0.1326E+01  0.3290E+01
      1.401  0.1718E+01  0.3495E+01
      1.520  0.1331E+01  0.3653E+01
      1.639  0.1580E+01  0.3841E+01
      1.757  0.1777E+01  0.4052E+01
      1.876  0.2214E+01  0.4315E+01
      1.995  0.1870E+01  0.4537E+01
      2.114  0.1815E+01  0.4753E+01
      2.233  0.2023E+01  0.4993E+01
      2.352  0.2678E+01  0.5311E+01
      2.470  0.2709E+01  0.5633E+01
      2.589  0.1736E+01  0.5839E+01
      2.708  0.1772E+01  0.6050E+01
      2.827  0.1428E+01  0.6220E+01
      2.946  0.1260E+01  0.6369E+01
      3.065  0.1464E+01  0.6543E+01
      3.184  0.1102E+01  0.6674E+01
      3.302  0.9281E+00  0.6785E+01
      3.421  0.1441E+01  0.6956E+01
      3.540  0.2222E+01  0.7220E+01
      3.659  0.2301E+01  0.7493E+01
      3.778  0.1715E+01  0.7697E+01
      3.897  0.9931E+00  0.7815E+01
      4.015  0.8680E+00  0.7918E+01
      4.134  0.1639E+01  0.8113E+01
      4.253  0.2141E+01  0.8368E+01
      4.372  0.1393E+01  0.8533E+01
      4.491  0.6412E+00  0.8609E+01
      4.610  0.8191E+00  0.8707E+01
      4.728  0.1865E+01  0.8928E+01
      4.847  0.1636E+01  0.9123E+01
      4.966  0.1298E+01  0.9277E+01
      5.085  0.1326E+01  0.9435E+01
      5.204  0.2264E+01  0.9704E+01
      5.323  0.3160E+01  0.1008E+02
      5.441  0.1988E+01  0.1032E+02
      5.560  0.8407E+00  0.1042E+02
      5.679  0.8963E+00  0.1052E+02
      5.798  0.3635E+00  0.1057E+02
      5.917  0.4392E-01  0.1057E+02
      6.036  0.4092E-01  0.1058E+02
      6.154  0.2415E+00  0.1060E+02
      6.273  0.6360E+00  0.1068E+02
      6.392  0.6896E+00  0.1076E+02
      6.511  0.1625E+00  0.1078E+02
      6.630  0.3352E-01  0.1078E+02
      6.749  0.2194E+00  0.1081E+02
      6.867  0.2764E+00  0.1084E+02
      6.986  0.1623E+00  0.1086E+02
      7.105  0.2655E+00  0.1089E+02
      7.224  0.3510E+00  0.1094E+02
      7.343  0.3973E+00  0.1098E+02
      7.462  0.1671E+00  0.1100E+02
      7.580  0.2377E+00  0.1103E+02
      7.699  0.1213E+00  0.1105E+02
      7.818  0.2530E+00  0.1108E+02
      7.937  0.2934E+00  0.1111E+02
      8.056  0.2842E+00  0.1114E+02
      8.175  0.1065E+00  0.1116E+02
      8.293  0.2368E+00  0.1119E+02
      8.412  0.4411E+00  0.1124E+02
      8.531  0.2043E+00  0.1126E+02
      8.650  0.2752E+00  0.1129E+02
      8.769  0.3286E+00  0.1133E+02
      8.888  0.4688E+00  0.1139E+02
      9.006  0.1946E+00  0.1141E+02
      9.125  0.4870E-01  0.1142E+02
      9.244  0.2164E+00  0.1144E+02
      9.363  0.1336E+00  0.1146E+02
      9.482  0.5459E-01  0.1147E+02
      9.601  0.3226E+00  0.1150E+02
      9.719  0.4180E+00  0.1155E+02
      9.838  0.4148E+00  0.1160E+02
      9.957  0.3253E+00  0.1164E+02
     10.076  0.4934E-01  0.1165E+02
     10.195  0.2975E-01  0.1165E+02
     10.314  0.2047E+00  0.1168E+02
     10.432  0.1512E+00  0.1169E+02
     10.551  0.8237E-01  0.1170E+02
     10.670  0.3244E+00  0.1174E+02
     10.789  0.2784E+00  0.1178E+02
     10.908  0.2477E+00  0.1181E+02
     11.027  0.9225E-01  0.1182E+02
     11.145  0.3588E+00  0.1186E+02
     11.264  0.6719E+00  0.1194E+02
     11.383  0.5856E+00  0.1201E+02
     11.502  0.1269E+00  0.1202E+02
     11.621  0.6980E-01  0.1203E+02
     11.740  0.4367E+00  0.1208E+02
     11.859  0.4784E+00  0.1214E+02
     11.977  0.1872E+00  0.1216E+02
     12.096  0.6906E-01  0.1217E+02
     12.215  0.2693E+00  0.1220E+02
     12.334  0.4143E+00  0.1225E+02
     12.453  0.5415E+00  0.1232E+02
     12.572  0.1599E+00  0.1234E+02
     12.690  0.2162E-01  0.1234E+02
     12.809  0.2287E+00  0.1237E+02
     12.928  0.4265E+00  0.1242E+02
     13.047  0.2983E+00  0.1245E+02
     13.166  0.2469E+00  0.1248E+02
     13.285  0.2270E+00  0.1251E+02
     13.403  0.2637E+00  0.1254E+02
     13.522  0.3145E+00  0.1258E+02
     13.641  0.4661E+00  0.1263E+02
     13.760  0.2705E+00  0.1266E+02
     13.879  0.1763E+00  0.1268E+02
     13.998  0.1745E+00  0.1271E+02
     14.116  0.7247E+00  0.1279E+02
     14.235  0.9131E+00  0.1290E+02
     14.354  0.2634E+00  0.1293E+02
     14.473  0.1420E+00  0.1295E+02
     14.592  0.1319E+00  0.1296E+02
     14.711  0.4395E-01  0.1297E+02
     14.829  0.1029E+00  0.1298E+02
     14.948  0.2524E+00  0.1301E+02
     15.067  0.2962E+00  0.1305E+02
     15.186  0.2958E+00  0.1308E+02
     15.305  0.9382E-01  0.1309E+02
     15.424  0.2123E+00  0.1312E+02
     15.542  0.3585E+00  0.1316E+02
     15.661  0.3852E+00  0.1321E+02
     15.780  0.2694E+00  0.1324E+02
     15.899  0.3639E+00  0.1328E+02
     16.018  0.1343E+00  0.1330E+02
     16.137  0.3276E+00  0.1334E+02
     16.255  0.1004E+01  0.1346E+02
     16.374  0.5362E+00  0.1352E+02
     16.493  0.3290E+00  0.1356E+02
     16.612  0.1489E+00  0.1358E+02
     16.731  0.1050E+00  0.1359E+02
     16.850  0.4617E+00  0.1364E+02
     16.968  0.3976E+00  0.1369E+02
     17.087  0.1468E+00  0.1371E+02
     17.206  0.4069E+00  0.1376E+02
     17.325  0.3187E+00  0.1379E+02
     17.444  0.1256E+00  0.1381E+02
     17.563  0.2873E+00  0.1384E+02
     17.681  0.5536E+00  0.1391E+02
     17.800  0.5887E+00  0.1398E+02
     17.919  0.3352E+00  0.1402E+02
     18.038  0.3705E+00  0.1406E+02
     18.157  0.1654E+00  0.1408E+02
     18.276  0.2588E+00  0.1411E+02
     18.394  0.4916E+00  0.1417E+02
     18.513  0.7036E+00  0.1426E+02
     18.632  0.6064E+00  0.1433E+02
     18.751  0.4184E+00  0.1438E+02
     18.870  0.4942E+00  0.1444E+02
     18.989  0.2689E+00  0.1447E+02
     19.107  0.4510E+00  0.1452E+02
     19.226  0.5101E+00  0.1458E+02
     19.345  0.8074E+00  0.1468E+02
     19.464  0.9400E+00  0.1479E+02
     19.583  0.3779E+00  0.1484E+02
     19.702  0.4236E+00  0.1489E+02
     19.821  0.2991E+00  0.1492E+02
     19.939  0.1269E+00  0.1494E+02
     20.058  0.1023E+00  0.1495E+02
     20.177  0.2374E+00  0.1498E+02
     20.296  0.3584E+00  0.1502E+02
     20.415  0.3246E+00  0.1506E+02
     20.534  0.8436E+00  0.1516E+02
     20.652  0.9230E+00  0.1527E+02
     20.771  0.5692E+00  0.1534E+02
     20.890  0.6709E+00  0.1541E+02
     21.009  0.5149E+00  0.1548E+02
     21.128  0.1417E+00  0.1549E+02
     21.247  0.4688E+00  0.1555E+02
     21.365  0.5402E+00  0.1561E+02
     21.484  0.2376E+00  0.1564E+02
     21.603  0.5389E+00  0.1571E+02
     21.722  0.3654E+00  0.1575E+02
     21.841  0.3567E+00  0.1579E+02
     21.960  0.3417E+00  0.1583E+02
     22.078  0.9433E+00  0.1594E+02
     22.197  0.1081E+01  0.1607E+02
     22.316  0.6340E+00  0.1615E+02
     22.435  0.1907E+00  0.1617E+02
     22.554  0.5777E+00  0.1624E+02
     22.673  0.5205E+00  0.1630E+02
     22.791  0.7552E+00  0.1639E+02
     22.910  0.9203E+00  0.1650E+02
     23.029  0.5250E+00  0.1656E+02
     23.148  0.1928E+00  0.1658E+02
     23.267  0.7949E-01  0.1659E+02
     23.386  0.5309E+00  0.1666E+02
     23.504  0.8648E+00  0.1676E+02
     23.623  0.8852E+00  0.1687E+02
     23.742  0.7704E+00  0.1696E+02
     23.861  0.8238E+00  0.1705E+02
     23.980  0.4099E+00  0.1710E+02
     24.099  0.3835E+00  0.1715E+02
     24.217  0.6457E+00  0.1723E+02
     24.336  0.6434E+00  0.1730E+02
     24.455  0.4591E+00  0.1736E+02
     24.574  0.2384E+00  0.1739E+02
     24.693  0.2848E+00  0.1742E+02
     24.812  0.1931E+00  0.1744E+02
     24.930  0.9940E-01  0.1745E+02
     25.049  0.2544E+00  0.1748E+02
     25.168  0.2656E+00  0.1752E+02
     25.287  0.1799E+00  0.1754E+02
     25.406  0.2566E+00  0.1757E+02
     25.525  0.3540E+00  0.1761E+02
     25.643  0.4928E+00  0.1767E+02
     25.762  0.5463E+00  0.1773E+02
     25.881  0.1380E+00  0.1775E+02
     26.000  0.4732E-02  0.1775E+02
     26.119  0.5036E-03  0.1775E+02
     26.238  0.3174E-01  0.1775E+02
     26.356  0.2172E+00  0.1778E+02
     26.475  0.2297E+00  0.1781E+02
     26.594  0.8902E-01  0.1782E+02
     26.713  0.2374E+00  0.1785E+02
     26.832  0.2202E+00  0.1787E+02
     26.951  0.8680E-01  0.1788E+02
     27.069  0.5543E-01  0.1789E+02
     27.188  0.2309E+00  0.1792E+02
     27.307  0.2428E+00  0.1795E+02
     27.426  0.1292E+00  0.1796E+02
     27.545  0.1455E+00  0.1798E+02
     27.664  0.5239E-01  0.1798E+02
     27.782  0.3382E-02  0.1798E+02
     27.901  0.2531E-04  0.1798E+02
     28.020  0.1463E-07  0.1798E+02
     28.139  0.3346E-06  0.1798E+02
     28.258  0.2061E-03  0.1798E+02
     28.377  0.9416E-02  0.1799E+02
     28.496  0.3871E-01  0.1799E+02
     28.614  0.1744E-01  0.1799E+02
     28.733  0.1775E-01  0.1799E+02
     28.852  0.3859E-01  0.1800E+02
     28.971  0.9168E-02  0.1800E+02
     29.090  0.1956E-03  0.1800E+02
     29.209  0.3088E-06  0.1800E+02
     29.327  0.3250E-10  0.1800E+02
     29.446  0.2190E-15  0.1800E+02
     29.565  0.0000E+00  0.1800E+02
     29.684  0.0000E+00  0.1800E+02
     29.803  0.0000E+00  0.1800E+02
     29.922  0.0000E+00  0.1800E+02
     30.040  0.0000E+00  0.1800E+02
     30.159  0.0000E+00  0.1800E+02
     30.278  0.0000E+00  0.1800E+02
     30.397  0.0000E+00  0.1800E+02
     30.39688287     -5.25383627  301      7.44543084      1.00000000
     -5.254  0.0000E+00  0.0000E+00  0.0000E+00  0.0000E+00  0.0000E+00  0.0000E+00  0.0000E+00  0.0000E+00  0.0000E+00
     -5.135  0.0000E+00  0.0000E+00  0.0000E+00  0.0000E+00  0.0000E+00  0.0000E+00  0.0000E+00  0.0000E+00  0.0000E+00
     -5.016  0.0000E+00  0.0000E+00  0.0000E+00  0.0000E+00  0.0000E+00  0.0000E+00  0.0000E+00  0.0000E+00  0.0000E+00
     -4.897  0.0000E+00  0.0000E+00  0.0000E+00  0.0000E+00  0.0000E+00  0.0000E+00  0.0000E+00  0.0000E+00  0.0000E+00
     -4.778  0.0000E+00  0.0000E+00  0.0000E+00  0.0000E+00  0.0000E+00  0.0000E+00  0.0000E+00  0.0000E+00  0.0000E+00
     -4.660  0.0000E+00  0.0000E+00  0.0000E+00  0.0000E+00  0.0000E+00  0.0000E+00  0.0000E+00  0.0000E+00  0.0000E+00
     -4.541  0.0000E+00  0.0000E+00  0.0000E+00  0.0000E+00  0.0000E+00  0.0000E+00  0.0000E+00  0.0000E+00  0.0000E+00
     -4.422  0.0000E+00  0.0000E+00  0.0000E+00  0.0000E+00  0.0000E+00  0.0000E+00  0.0000E+00  0.0000E+00  0.0000E+00
     -4.303  0.0000E+00  0.0000E+00  0.0000E+00  0.0000E+00  0.0000E+00  0.0000E+00  0.0000E+00  0.0000E+00  0.0000E+00
     -4.184  0.1466E-15  0.5229E-18  0.5229E-18  0.5229E-18  0.1995E-19  0.1995E-19  0.7082E-31  0.1995E-19  0.2610E-31
     -4.065  0.2212E-10  0.7892E-13  0.7892E-13  0.7892E-13  0.3010E-14  0.3010E-14  0.1069E-25  0.3010E-14  0.3939E-26
     -3.947  0.2102E-06  0.7499E-09  0.7499E-09  0.7499E-09  0.2861E-10  0.2861E-10  0.1016E-21  0.2861E-10  0.3743E-22
     -3.828  0.1331E-03  0.4749E-06  0.4749E-06  0.4749E-06  0.1812E-07  0.1812E-07  0.6432E-19  0.1812E-07  0.2370E-19
     -3.709  0.6242E-02  0.2226E-04  0.2226E-04  0.2226E-04  0.8493E-06  0.8493E-06  0.5312E-15  0.8493E-06  0.1586E-14
     -3.590  0.2627E-01  0.9372E-04  0.9372E-04  0.9372E-04  0.3575E-05  0.3575E-05  0.1312E-10  0.3575E-05  0.3935E-10
     -3.471  0.1167E-01  0.4164E-04  0.4164E-04  0.4323E-04  0.1652E-05  0.1592E-05  0.2126E-07  0.1652E-05  0.6376E-07
     -3.352  0.6774E-02  0.2333E-04  0.2333E-04  0.2054E-03  0.8167E-05  0.1319E-05  0.2435E-05  0.8167E-05  0.7304E-05
     -3.234  0.5993E-01  0.2058E-03  0.2058E-03  0.1942E-02  0.7725E-04  0.1194E-04  0.2322E-04  0.7725E-04  0.6965E-04
     -3.115  0.5813E-01  0.2002E-03  0.2002E-03  0.1883E-02  0.7494E-04  0.1184E-04  0.2252E-04  0.7495E-04  0.6756E-04
     -2.996  0.9310E-02  0.1320E-03  0.1320E-03  0.1963E-03  0.1422E-04  0.4542E-04  0.3370E-05  0.1422E-04  0.1011E-04
     -2.877  0.4845E-01  0.1510E-02  0.1510E-02  0.1543E-03  0.9228E-04  0.5950E-03  0.1558E-04  0.9228E-04  0.4675E-04
     -2.758  0.6471E-01  0.2018E-02  0.2019E-02  0.2049E-03  0.1237E-03  0.7955E-03  0.2092E-04  0.1237E-03  0.6239E-04
     -2.639  0.1312E-01  0.3552E-03  0.5046E-03  0.1052E-03  0.6337E-04  0.1619E-03  0.3569E-04  0.6925E-04  0.8601E-05
     -2.521  0.5507E-01  0.6848E-03  0.3767E-02  0.6818E-03  0.3784E-03  0.5007E-03  0.6771E-03  0.4996E-03  0.1014E-06
     -2.402  0.8588E-01  0.6893E-03  0.6808E-02  0.6933E-03  0.3293E-03  0.5678E-03  0.1345E-02  0.5680E-03  0.4826E-06
     -2.283  0.2481E-01  0.3456E-03  0.1381E-02  0.8775E-03  0.3720E-03  0.1192E-03  0.3333E-03  0.1343E-03  0.6484E-04
     -2.164  0.9987E-01  0.2887E-02  0.2827E-03  0.8763E-02  0.3772E-02  0.4281E-03  0.5979E-03  0.5952E-03  0.7162E-03
     -2.045  0.1147E+00  0.3302E-02  0.3767E-03  0.1006E-01  0.4415E-02  0.6292E-03  0.6670E-03  0.8780E-03  0.8191E-03
     -1.926  0.5789E-01  0.1415E-02  0.1082E-02  0.4728E-02  0.3023E-02  0.1862E-02  0.1611E-03  0.2621E-02  0.3489E-03
     -1.808  0.5311E-01  0.1233E-02  0.1230E-02  0.4243E-02  0.2983E-02  0.2117E-02  0.1018E-03  0.2979E-02  0.3031E-03
     -1.689  0.1033E-01  0.4017E-03  0.5516E-03  0.5161E-03  0.4200E-03  0.6481E-03  0.1358E-03  0.4255E-03  0.5743E-04
     -1.570  0.7436E-01  0.4017E-02  0.8156E-02  0.2668E-03  0.1819E-02  0.6831E-02  0.3327E-02  0.1971E-02  0.3143E-03
     -1.451  0.1703E+00  0.8065E-02  0.1887E-01  0.9778E-03  0.7343E-02  0.1639E-01  0.8590E-02  0.7735E-02  0.5454E-03
     -1.332  0.8717E-01  0.3514E-02  0.9951E-02  0.8610E-03  0.6994E-02  0.1093E-01  0.4871E-02  0.7042E-02  0.1460E-03
     -1.213  0.1440E+00  0.3853E-02  0.2247E-01  0.9586E-03  0.9511E-02  0.1690E-01  0.1318E-01  0.9118E-02  0.3707E-04
     -1.095  0.1483E+00  0.2925E-02  0.1851E-01  0.2686E-02  0.3427E-01  0.3924E-01  0.1013E-01  0.3337E-01  0.2034E-03
     -0.976  0.1597E+00  0.3771E-02  0.5196E-02  0.9326E-02  0.8518E-01  0.8889E-01  0.6048E-02  0.7929E-01  0.1237E-02
     -0.857  0.1571E+00  0.5907E-02  0.1774E-02  0.1548E-01  0.7535E-01  0.6939E-01  0.5708E-01  0.5693E-01  0.2473E-02
     -0.738  0.2303E+00  0.9678E-02  0.1075E-01  0.2226E-01  0.1130E+00  0.9228E-01  0.1396E+00  0.6944E-01  0.3952E-02
     -0.619  0.2047E+00  0.7962E-02  0.1924E-01  0.1067E-01  0.1149E+00  0.1004E+00  0.2157E+00  0.7587E-01  0.2477E-02
     -0.500  0.1535E+00  0.5620E-02  0.2395E-01  0.6294E-02  0.1428E+00  0.5752E-01  0.3459E+00  0.3389E-01  0.7930E-02
     -0.382  0.2614E+00  0.7557E-02  0.4307E-01  0.1316E-01  0.3649E+00  0.1382E+00  0.3932E+00  0.7602E-01  0.1329E-01
     -0.263  0.2074E+00  0.9777E-02  0.2882E-01  0.1407E-01  0.4452E+00  0.1705E+00  0.2883E+00  0.8126E-01  0.8694E-02
     -0.144  0.1588E+00  0.1446E-01  0.2688E-01  0.9687E-02  0.5130E+00  0.1206E+00  0.3315E+00  0.4795E-01  0.5618E-02
     -0.025  0.1690E+00  0.1600E-01  0.3453E-01  0.9713E-02  0.7344E+00  0.1105E+00  0.4703E+00  0.4549E-01  0.9731E-02
      0.094  0.1335E+00  0.1223E-01  0.2572E-01  0.1448E-01  0.5938E+00  0.1711E+00  0.3101E+00  0.5399E-01  0.3859E-01
      0.213  0.8832E-01  0.1301E-01  0.9205E-02  0.2565E-01  0.4437E+00  0.1450E+00  0.1491E+00  0.3255E-01  0.7204E-01
      0.331  0.9153E-01  0.2311E-01  0.6698E-02  0.3541E-01  0.6012E+00  0.1581E+00  0.2345E+00  0.2505E-01  0.7851E-01
      0.450  0.6976E-01  0.2201E-01  0.9204E-02  0.2382E-01  0.5499E+00  0.2491E+00  0.3195E+00  0.2322E-01  0.1191E+00
      0.569  0.2863E-01  0.2072E-01  0.6895E-02  0.1818E-01  0.4086E+00  0.1103E+00  0.2403E+00  0.1386E-01  0.9578E-01
      0.688  0.3506E-01  0.2581E-01  0.1784E-01  0.2328E-01  0.3981E+00  0.1809E+00  0.2418E+00  0.2323E-01  0.7486E-01
      0.807  0.1620E-01  0.1600E-01  0.1152E-01  0.1492E-01  0.2170E+00  0.1322E+00  0.1618E+00  0.1515E-01  0.3496E-01
      0.926  0.1441E-01  0.2118E-01  0.2421E-01  0.2192E-01  0.4766E+00  0.2142E+00  0.1862E+00  0.2861E-01  0.7351E-01
      1.044  0.2293E-01  0.3867E-01  0.3585E-01  0.3221E-01  0.5755E+00  0.3517E+00  0.3651E+00  0.5099E-01  0.1378E+00
      1.163  0.1242E-01  0.4023E-01  0.1513E-01  0.2479E-01  0.1699E+00  0.2642E+00  0.5808E+00  0.6350E-01  0.9854E-01
      1.282  0.1531E-01  0.2716E-01  0.1651E-01  0.2055E-01  0.2139E+00  0.2862E+00  0.3787E+00  0.1168E+00  0.8422E-01
      1.401  0.2277E-01  0.1673E-01  0.2830E-01  0.2581E-01  0.4462E+00  0.3906E+00  0.2205E+00  0.2169E+00  0.1588E+00
      1.520  0.2146E-01  0.1774E-01  0.1801E-01  0.2539E-01  0.2921E+00  0.2785E+00  0.2902E+00  0.1045E+00  0.1283E+00
      1.639  0.2656E-01  0.2595E-01  0.1348E-01  0.3117E-01  0.3191E+00  0.2688E+00  0.4748E+00  0.1013E+00  0.1358E+00
      1.757  0.3752E-01  0.1829E-01  0.2514E-01  0.2897E-01  0.3294E+00  0.4502E+00  0.4129E+00  0.1435E+00  0.1417E+00
      1.876  0.6135E-01  0.1975E-01  0.6590E-01  0.5808E-01  0.5220E+00  0.6609E+00  0.2162E+00  0.1667E+00  0.1893E+00
      1.995  0.3548E-01  0.1448E-01  0.4613E-01  0.3964E-01  0.4433E+00  0.4554E+00  0.2157E+00  0.1484E+00  0.2758E+00
      2.114  0.3072E-01  0.1512E-01  0.2821E-01  0.2266E-01  0.4316E+00  0.2794E+00  0.4115E+00  0.1662E+00  0.2587E+00
      2.233  0.2603E-01  0.1545E-01  0.2627E-01  0.1684E-01  0.3983E+00  0.3449E+00  0.4795E+00  0.3171E+00  0.2266E+00
      2.352  0.4266E-01  0.2682E-01  0.6612E-01  0.3169E-01  0.4560E+00  0.6504E+00  0.4033E+00  0.4280E+00  0.3249E+00
      2.470  0.6072E-01  0.3258E-01  0.9746E-01  0.4250E-01  0.4912E+00  0.6467E+00  0.2817E+00  0.4673E+00  0.3114E+00
      2.589  0.2595E-01  0.1472E-01  0.3277E-01  0.2114E-01  0.1740E+00  0.3622E+00  0.1993E+00  0.4952E+00  0.2634E+00
      2.708  0.5078E-01  0.1904E-01  0.6173E-01  0.2362E-01  0.1581E+00  0.3960E+00  0.2839E+00  0.3563E+00  0.2468E+00
      2.827  0.4244E-01  0.1636E-01  0.6477E-01  0.1696E-01  0.9972E-01  0.3549E+00  0.2255E+00  0.2268E+00  0.2312E+00
      2.946  0.1365E-01  0.1441E-01  0.4856E-01  0.1475E-01  0.1014E+00  0.2995E+00  0.1373E+00  0.2519E+00  0.2609E+00
      3.065  0.7194E-02  0.1382E-01  0.3519E-01  0.1611E-01  0.1283E+00  0.2087E+00  0.1428E+00  0.3827E+00  0.4101E+00
      3.184  0.8829E-02  0.4597E-02  0.2135E-01  0.7828E-02  0.5130E-01  0.1076E+00  0.1925E+00  0.2343E+00  0.3927E+00
      3.302  0.5693E-02  0.3368E-02  0.8194E-02  0.4720E-02  0.2607E-01  0.5657E-01  0.2091E+00  0.1583E+00  0.3964E+00
      3.421  0.1544E-01  0.1146E-01  0.2288E-01  0.1569E-01  0.5068E-01  0.1450E+00  0.2107E+00  0.2263E+00  0.6367E+00
      3.540  0.3864E-01  0.2788E-01  0.7085E-01  0.3409E-01  0.7232E-01  0.3610E+00  0.2942E+00  0.3713E+00  0.7567E+00
      3.659  0.4769E-01  0.2459E-01  0.7528E-01  0.2657E-01  0.9974E-01  0.2876E+00  0.3939E+00  0.4205E+00  0.7312E+00
      3.778  0.2376E-01  0.9740E-02  0.2318E-01  0.1296E-01  0.6038E-01  0.1101E+00  0.3784E+00  0.2181E+00  0.7624E+00
      3.897  0.6147E-02  0.2839E-02  0.3153E-02  0.8232E-02  0.3576E-01  0.2360E-01  0.3101E+00  0.1043E+00  0.4455E+00
      4.015  0.3656E-02  0.2669E-02  0.6814E-02  0.7292E-02  0.1134E-01  0.6865E-01  0.1997E+00  0.1507E+00  0.3729E+00
      4.134  0.1343E-01  0.5336E-02  0.3728E-01  0.8204E-02  0.3632E-01  0.2732E+00  0.1229E+00  0.4343E+00  0.6133E+00
      4.253  0.2339E-01  0.8087E-02  0.3701E-01  0.1003E-01  0.1336E+00  0.2195E+00  0.3368E+00  0.5009E+00  0.7561E+00
      4.372  0.1468E-01  0.9516E-02  0.1895E-01  0.8661E-02  0.1081E+00  0.1052E+00  0.2237E+00  0.2799E+00  0.5487E+00
      4.491  0.3496E-02  0.9171E-02  0.1057E-01  0.8506E-02  0.2973E-01  0.9129E-01  0.5134E-01  0.8686E-01  0.3108E+00
      4.610  0.6807E-02  0.3732E-02  0.1382E-01  0.4177E-02  0.2243E-01  0.1316E+00  0.4141E-01  0.2200E+00  0.3362E+00
      4.728  0.1256E-01  0.4243E-02  0.2155E-01  0.6070E-02  0.7479E-01  0.2655E+00  0.9457E-01  0.6602E+00  0.6508E+00
      4.847  0.8438E-02  0.4387E-02  0.1145E-01  0.6137E-02  0.1094E+00  0.1562E+00  0.1205E+00  0.5243E+00  0.6357E+00
      4.966  0.9931E-02  0.4178E-02  0.1012E-01  0.8571E-02  0.1322E+00  0.7883E-01  0.9997E-01  0.4317E+00  0.4732E+00
      5.085  0.8394E-02  0.6065E-02  0.1085E-01  0.8667E-02  0.1215E+00  0.1158E+00  0.1179E+00  0.5184E+00  0.3693E+00
      5.204  0.2405E-01  0.8863E-02  0.2472E-01  0.1309E-01  0.2145E+00  0.2426E+00  0.2095E+00  0.9892E+00  0.4555E+00
      5.323  0.4316E-01  0.9159E-02  0.2770E-01  0.1852E-01  0.2682E+00  0.4550E+00  0.2380E+00  0.1465E+01  0.5310E+00
      5.441  0.2776E-01  0.6700E-02  0.8672E-02  0.1110E-01  0.2024E+00  0.3473E+00  0.1970E+00  0.7534E+00  0.3773E+00
      5.560  0.6797E-02  0.1900E-02  0.8838E-03  0.2963E-02  0.6500E-01  0.1378E+00  0.6384E-01  0.4387E+00  0.1050E+00
      5.679  0.2744E-02  0.1747E-02  0.2079E-02  0.1734E-02  0.4904E-02  0.1116E+00  0.5943E-02  0.7198E+00  0.2904E-01
      5.798  0.6469E-02  0.4640E-02  0.4731E-02  0.2730E-02  0.1603E-02  0.8583E-01  0.9377E-02  0.2021E+00  0.3189E-01
      5.917  0.2009E-02  0.1418E-02  0.1420E-02  0.7708E-03  0.3525E-03  0.1695E-01  0.2890E-02  0.5951E-02  0.8812E-02
      6.036  0.3445E-02  0.1281E-02  0.1428E-02  0.3596E-03  0.1362E-03  0.1813E-01  0.3521E-02  0.1677E-03  0.9460E-02
      6.154  0.2238E-01  0.6817E-02  0.1117E-01  0.2202E-02  0.1479E-02  0.1050E+00  0.2549E-01  0.2123E-02  0.4557E-01
      6.273  0.6532E-01  0.1547E-01  0.3757E-01  0.5165E-02  0.4638E-02  0.2700E+00  0.7463E-01  0.1206E-01  0.9738E-01
      6.392  0.7528E-01  0.1573E-01  0.5240E-01  0.6401E-02  0.5803E-02  0.2752E+00  0.8410E-01  0.2639E-01  0.8269E-01
      6.511  0.1856E-01  0.3564E-02  0.1524E-01  0.1836E-02  0.1650E-02  0.6121E-01  0.2101E-01  0.8628E-02  0.1340E-01
      6.630  0.3801E-02  0.1018E-02  0.7508E-02  0.1099E-02  0.4552E-03  0.5337E-02  0.2939E-02  0.3621E-02  0.1123E-02
      6.749  0.2084E-01  0.1070E-01  0.4553E-01  0.1220E-01  0.4889E-02  0.2696E-01  0.1716E-01  0.2495E-01  0.9461E-02
      6.867  0.2665E-01  0.1412E-01  0.4517E-01  0.1601E-01  0.7320E-02  0.3955E-01  0.2625E-01  0.3715E-01  0.1128E-01
      6.986  0.1562E-01  0.9271E-02  0.1562E-01  0.1240E-01  0.2661E-01  0.1438E-01  0.2359E-01  0.1318E-01  0.4445E-02
      7.105  0.2298E-01  0.1853E-01  0.1596E-01  0.2655E-01  0.7470E-01  0.6111E-02  0.4435E-01  0.3835E-02  0.7938E-02
      7.224  0.4804E-01  0.1617E-01  0.8212E-02  0.2576E-01  0.1324E+00  0.2195E-02  0.7032E-01  0.1592E-02  0.3999E-02
      7.343  0.6230E-01  0.1470E-01  0.3833E-02  0.2512E-01  0.1635E+00  0.6671E-03  0.8340E-01  0.6895E-03  0.2258E-02
      7.462  0.2831E-01  0.4471E-02  0.6096E-03  0.1499E-01  0.6829E-01  0.1224E-03  0.2885E-01  0.7572E-03  0.2753E-02
      7.580  0.4141E-01  0.4905E-02  0.7415E-03  0.2716E-01  0.9399E-01  0.5300E-03  0.3325E-01  0.1862E-02  0.6296E-02
      7.699  0.2020E-01  0.3069E-02  0.7942E-02  0.8550E-02  0.2563E-01  0.1677E-01  0.1649E-01  0.4351E-02  0.2857E-02
      7.818  0.3986E-01  0.7344E-02  0.3593E-01  0.5189E-02  0.2100E-02  0.7283E-01  0.3263E-01  0.1624E-01  0.4876E-02
      7.937  0.4386E-01  0.6348E-02  0.5953E-01  0.4111E-02  0.8078E-03  0.8375E-01  0.2961E-01  0.1259E-01  0.5076E-02
      8.056  0.3135E-01  0.1404E-01  0.5681E-01  0.1225E-01  0.1001E-02  0.7251E-01  0.2055E-01  0.6941E-02  0.1424E-01
      8.175  0.7358E-02  0.9876E-02  0.1507E-01  0.9659E-02  0.1521E-02  0.2190E-01  0.5191E-02  0.2216E-02  0.1086E-01
      8.293  0.3541E-01  0.1163E-01  0.3634E-01  0.1412E-01  0.1082E-01  0.4226E-01  0.7859E-02  0.1403E-01  0.2054E-01
      8.412  0.6469E-01  0.2067E-01  0.8148E-01  0.2003E-01  0.1370E-01  0.8533E-01  0.1437E-01  0.2158E-01  0.3492E-01
      8.531  0.3961E-01  0.8237E-02  0.3170E-01  0.4061E-02  0.1808E-02  0.5619E-01  0.1175E-01  0.4325E-02  0.1218E-01
      8.650  0.6439E-01  0.8069E-02  0.3429E-01  0.1440E-02  0.1233E-03  0.8713E-01  0.2349E-01  0.6307E-02  0.1010E-01
      8.769  0.5729E-01  0.1209E-01  0.5477E-01  0.8634E-02  0.1877E-02  0.7657E-01  0.3302E-01  0.2271E-01  0.6970E-02
      8.888  0.5423E-01  0.3217E-01  0.7209E-01  0.3005E-01  0.1052E-01  0.9462E-01  0.5622E-01  0.1722E-01  0.1087E-01
      9.006  0.1218E-01  0.1766E-01  0.3045E-01  0.1816E-01  0.7475E-02  0.3129E-01  0.2630E-01  0.4734E-02  0.4058E-02
      9.125  0.8163E-02  0.1679E-02  0.9820E-02  0.1347E-02  0.5543E-03  0.1218E-01  0.4980E-02  0.7753E-03  0.4498E-03
      9.244  0.4555E-01  0.2814E-02  0.4653E-01  0.4019E-03  0.1938E-04  0.6209E-01  0.1931E-01  0.2946E-02  0.1319E-02
      9.363  0.2822E-01  0.1759E-02  0.2858E-01  0.3083E-03  0.1996E-03  0.3813E-01  0.1189E-01  0.1810E-02  0.8155E-03
      9.482  0.1636E-01  0.2188E-02  0.3646E-02  0.3952E-02  0.1128E-01  0.3121E-02  0.3167E-02  0.3120E-03  0.4275E-03
      9.601  0.8136E-01  0.1102E-01  0.4505E-01  0.2062E-01  0.5894E-01  0.2082E-01  0.1485E-01  0.3299E-02  0.1993E-02
      9.719  0.6688E-01  0.7877E-02  0.1168E+00  0.1290E-01  0.3353E-01  0.6057E-01  0.1863E-01  0.1146E-01  0.1275E-02
      9.838  0.7385E-01  0.1477E-01  0.8187E-01  0.1896E-01  0.2775E-01  0.6077E-01  0.3502E-01  0.2156E-01  0.1816E-02
      9.957  0.6305E-01  0.2047E-01  0.3473E-01  0.2990E-01  0.4959E-01  0.2122E-01  0.2928E-01  0.9458E-02  0.2779E-02
     10.076  0.9606E-02  0.3779E-02  0.3500E-02  0.5800E-02  0.9989E-02  0.8947E-03  0.4289E-02  0.5740E-03  0.5465E-03
     10.195  0.9269E-02  0.6111E-03  0.9528E-04  0.4923E-02  0.6960E-02  0.7521E-05  0.8570E-03  0.2439E-03  0.1411E-02
     10.314  0.6445E-01  0.3859E-02  0.3246E-03  0.3411E-01  0.4799E-01  0.2762E-04  0.5567E-02  0.1688E-02  0.9914E-02
     10.432  0.4724E-01  0.2864E-02  0.7681E-03  0.2496E-01  0.3506E-01  0.2257E-03  0.4175E-02  0.1428E-02  0.7243E-02
     10.551  0.1223E-01  0.2644E-02  0.2117E-01  0.3684E-02  0.2982E-02  0.9181E-02  0.5007E-02  0.7845E-02  0.5955E-03
     10.670  0.5806E-01  0.1386E-01  0.8011E-01  0.8434E-02  0.2655E-02  0.4352E-01  0.1887E-01  0.2873E-01  0.9276E-03
     10.789  0.7449E-01  0.1250E-01  0.3625E-01  0.1900E-01  0.1912E-01  0.2724E-01  0.1067E-01  0.1616E-01  0.5834E-02
     10.908  0.7137E-01  0.7537E-02  0.5524E-02  0.3863E-01  0.4508E-01  0.2356E-02  0.6947E-02  0.1257E-01  0.1264E-01
     11.027  0.2713E-01  0.2261E-02  0.7928E-02  0.1006E-01  0.1185E-01  0.5802E-02  0.2837E-02  0.3510E-02  0.3316E-02
     11.145  0.1101E+00  0.5548E-02  0.8005E-01  0.9136E-03  0.3615E-02  0.6541E-01  0.1227E-01  0.5622E-02  0.4849E-03
     11.264  0.2463E+00  0.1176E-01  0.9424E-01  0.1003E-01  0.4166E-01  0.9674E-01  0.1414E-01  0.3312E-01  0.1225E-02
     11.383  0.2658E+00  0.1276E-01  0.1392E-01  0.1773E-01  0.7447E-01  0.5505E-01  0.2659E-02  0.5435E-01  0.1504E-02
     11.502  0.5917E-01  0.2718E-02  0.1017E-02  0.3912E-02  0.1705E-01  0.1140E-01  0.3150E-03  0.1298E-01  0.3429E-03
     11.621  0.2712E-01  0.1033E-02  0.9436E-02  0.1299E-02  0.2272E-02  0.7932E-02  0.2616E-02  0.4855E-02  0.1922E-03
     11.740  0.1603E+00  0.8912E-02  0.6110E-01  0.9201E-02  0.1030E-01  0.5288E-01  0.1978E-01  0.3076E-01  0.9938E-03
     11.859  0.1493E+00  0.1952E-01  0.6965E-01  0.1716E-01  0.6318E-02  0.6410E-01  0.2679E-01  0.2621E-01  0.1131E-02
     11.977  0.4695E-01  0.1214E-01  0.2921E-01  0.1031E-01  0.4949E-03  0.2725E-01  0.1207E-01  0.4968E-02  0.6096E-03
     12.096  0.2840E-01  0.1052E-02  0.9896E-02  0.1375E-02  0.8048E-03  0.8005E-02  0.3065E-02  0.7971E-03  0.1367E-02
     12.215  0.1203E+00  0.1643E-02  0.3487E-01  0.3458E-02  0.6547E-02  0.2936E-01  0.9273E-02  0.5738E-02  0.5690E-02
     12.334  0.1493E+00  0.1538E-01  0.4732E-01  0.1419E-01  0.2495E-01  0.4680E-01  0.6530E-02  0.2692E-01  0.3275E-02
     12.453  0.1430E+00  0.3154E-01  0.8510E-01  0.2964E-01  0.3540E-01  0.5737E-01  0.5203E-02  0.3202E-01  0.2571E-02
     12.572  0.3648E-01  0.1037E-01  0.2945E-01  0.9918E-02  0.9734E-02  0.1613E-01  0.1529E-02  0.7148E-02  0.9656E-03
     12.690  0.6169E-02  0.1327E-02  0.1771E-02  0.2283E-02  0.2141E-02  0.8734E-03  0.2780E-03  0.1463E-02  0.5765E-03
     12.809  0.7012E-01  0.1378E-01  0.1042E-01  0.2765E-01  0.2585E-01  0.4278E-02  0.3206E-02  0.1718E-01  0.7558E-02
     12.928  0.1307E+00  0.2942E-01  0.2147E-01  0.5209E-01  0.4690E-01  0.6125E-02  0.5264E-02  0.2501E-01  0.1166E-01
     13.047  0.8832E-01  0.2493E-01  0.1768E-01  0.4074E-01  0.3046E-01  0.1395E-02  0.2914E-02  0.8582E-02  0.5172E-02
     13.166  0.6564E-01  0.1347E-01  0.1207E-01  0.4845E-01  0.2204E-01  0.6075E-03  0.4750E-02  0.1405E-01  0.7063E-02
     13.285  0.5388E-01  0.1076E-01  0.1202E-01  0.4957E-01  0.2284E-01  0.1181E-02  0.5481E-02  0.1065E-01  0.7594E-02