    1    1    1    1
  0.1510406E+02  0.2774616E-09  0.2774616E-09  0.2774616E-09  0.5000000E-15
   1.0000000000000000E-004
  CAR 
 Au, FCC                                 
   11   60    9

  0.6250000E-01  0.6250000E-01  0.6250000E-01  0.3906250E-02
   1       -3.6333
   2        1.8978
   3        2.0113
   4        2.0113
   5        3.8041
   6        3.8041
   7       22.9481
   8       26.3302
   9       27.5443

  0.1875000E+00  0.6250000E-01  0.6250000E-01  0.1171875E-01
   1       -2.8617
   2        1.6302
   3        2.2589
   4        2.2831
   5        3.5407
   6        3.9411
   7       23.3844
   8       23.9605
   9       27.1884

  0.3125000E+00  0.6250000E-01  0.6250000E-01  0.1171875E-01
   1       -1.4844
   2        1.7443
   3        2.2790
   4        2.3488
   5        3.8375
   6        4.5652
   7       18.8102
   8       23.8092
   9       27.1272

  0.4375000E+00  0.6250000E-01  0.6250000E-01  0.1171875E-01
   1       -1.0073
   2        1.9428
   3        2.0755
   4        3.6070
   5        4.7904
   6        5.7344
   7       13.7191
   8       22.5928
   9       25.6308

 -0.4375000E+00  0.6250000E-01  0.6250000E-01  0.1171875E-01
   1       -1.0163
   2        1.8175
   3        2.0019
   4        4.4082
   5        5.3247
   6        6.7574
   7       11.3177
   8       22.2152
   9       25.6809

 -0.3125000E+00  0.6250000E-01  0.6250000E-01  0.1171875E-01
   1       -1.0559
   2        2.0037
   3        2.1999
   4        2.7945
   5        4.9044
   6        4.9484
   7       15.3464
   8       23.0016
   9       26.3870

 -0.1875000E+00  0.6250000E-01  0.6250000E-01  0.1171875E-01
   1       -1.9181
   2        1.5344
   3        2.3379
   4        2.4054
   5        3.7141
   6        4.1961
   7       20.5031
   8       24.2054
   9       27.4608

 -0.6250000E-01  0.6250000E-01  0.6250000E-01  0.1171875E-01
   1       -3.2353
   2        1.6974
   3        2.1858
   4        2.1932
   5        3.5716
   6        3.9172
   7       23.4186
   8       25.1020
   9       27.2712

  0.1875000E+00  0.1875000E+00  0.6250000E-01  0.1171875E-01
   1       -2.4842
   2        1.3163
   3        2.5169
   4        2.5495
   5        3.2362
   6        4.1306
   7       23.8221
   8       24.4312
   9       26.3229

  0.3125000E+00  0.1875000E+00  0.6250000E-01  0.2343750E-01
   1       -1.2499
   2        0.9761
   3        2.2635
   4        2.9839
   5        3.6180
   6        4.7019
   7       20.8963
   8       23.5365
   9       25.7184

  0.4375000E+00  0.1875000E+00  0.6250000E-01  0.2343750E-01
   1       -0.4375
   2        1.5769
   3        1.8224
   4        2.8000
   5        4.8646
   6        6.2017
   7       15.6405
   8       22.7525
   9       23.5974

 -0.4375000E+00  0.1875000E+00  0.6250000E-01  0.2343750E-01
   1       -0.4026
   2        1.3993
   3        2.5482
   4        2.9593
   5        5.2369
   6        8.8725
   7       11.2714
   8       22.0617
   9       22.9933

 -0.3125000E+00  0.1875000E+00  0.6250000E-01  0.2343750E-01
   1       -0.3338
   2        1.5588
   3        2.3272
   4        2.6836
   5        4.6434
   6        7.2119
   7       14.1071
   8       21.5533
   9       23.8046

 -0.1875000E+00  0.1875000E+00  0.6250000E-01  0.2343750E-01
   1       -0.7806
   2        1.1768
   3        2.0569
   4        2.9205
   5        3.5154
   6        5.4028
   7       19.0991
   8       22.1991
   9       25.6108

 -0.6250000E-01  0.1875000E+00  0.6250000E-01  0.2343750E-01
   1       -2.1584
   2        1.3616
   3        2.3982
   4        2.5476
   5        3.3674
   6        4.2429
   7       22.1874
   8       24.0794
   9       26.6807

  0.3125000E+00  0.3125000E+00  0.6250000E-01  0.1171875E-01
   1       -0.7212
   2        0.3821
   3        2.7094
   4        3.6842
   5        4.1373
   6        4.7462
   7       21.3206
   8       22.5869
   9       23.6698

  0.4375000E+00  0.3125000E+00  0.6250000E-01  0.2343750E-01
   1       -0.2669
   2        0.2122
   3        2.6733
   4        4.1476
   5        4.9531
   6        6.3428
   7       17.6877
   8       20.2800
   9       21.2392

 -0.4375000E+00  0.3125000E+00  0.6250000E-01  0.2343750E-01
   1       -0.0533
   2        0.7419
   3        2.3859
   4        3.7347
   5        5.3346
   6        9.7931
   7       12.9623
   8       18.6275
   9       20.9223

 -0.3125000E+00  0.3125000E+00  0.6250000E-01  0.2343750E-01
   1        0.4044
   2        1.1718
   3        1.8590
   4        3.4255
   5        4.7108
   6        9.5685
   7       14.1530
   8       16.8864
   9       22.7874

 -0.1875000E+00  0.3125000E+00  0.6250000E-01  0.2343750E-01
   1        0.2551
   2        1.3426
   3        1.5658
   4        3.1364
   5        4.0604
   6        7.2737
   7       16.2015
   8       19.3265
   9       24.2369

 -0.6250000E-01  0.3125000E+00  0.6250000E-01  0.2343750E-01
   1       -0.9471
   2        1.7920
   3        2.0627
   4        2.4769
   5        4.2015
   6        5.2289
   7       17.2035
   8       23.3856
   9       25.4034

  0.4375000E+00  0.4375000E+00  0.6250000E-01  0.1171875E-01
   1       -0.6905
   2       -0.3171
   3        4.6229
   4        4.8779
   5        5.3975
   6        6.7168
   7       16.8007
   8       18.7997
   9       19.2075

 -0.4375000E+00  0.4375000E+00  0.6250000E-01  0.2343750E-01
   1       -0.5784
   2       -0.2149
   3        4.1073
   4        4.8273
   5        5.6169
   6        9.6463
   7       14.0366
   8       17.1826
   9       18.5680

 -0.3125000E+00  0.4375000E+00  0.6250000E-01  0.2343750E-01
   1       -0.1010
   2        0.5859
   3        2.7267
   4        4.0464
   5        5.2783
   6       11.7055
   7       12.4013
   8       16.1838
   9       20.4683

 -0.1875000E+00  0.4375000E+00  0.6250000E-01  0.2343750E-01
   1        0.0641
   2        1.1545
   3        2.3942
   4        3.0049
   5        5.0241
   6        9.8726
   7       11.7335
   8       19.6590
   9       22.8063

 -0.6250000E-01  0.4375000E+00  0.6250000E-01  0.2343750E-01
   1       -0.7831
   2        1.7062
   3        2.2182
   4        3.4593
   5        5.1449
   6        7.0345
   7       12.3332
   8       22.5076
   9       24.3959

 -0.4375000E+00 -0.4375000E+00  0.6250000E-01  0.1171875E-01
   1       -0.8360
   2       -0.4716
   3        5.1448
   4        5.2135
   5        5.6441
   6        8.3409
   7       14.5339
   8       17.8236
   9       18.3784

 -0.3125000E+00 -0.4375000E+00  0.6250000E-01  0.2343750E-01
   1       -0.4300
   2       -0.0674
   3        3.4919
   4        4.6579
   5        5.3596
   6        7.9362
   7       15.8446
   8       18.4338
   9       19.3967

 -0.1875000E+00 -0.4375000E+00  0.6250000E-01  0.2343750E-01
   1       -0.1186
   2        1.0899
   3        2.0034
   4        3.2573
   5        5.2568
   6        7.7728
   7       14.1697
   8       21.2737
   9       21.8202

 -0.3125000E+00 -0.3125000E+00  0.6250000E-01  0.1171875E-01
   1       -0.5304
   2       -0.0222
   3        3.5794
   4        4.3401
   5        5.0791
   6        5.1995
   7       19.3320
   8       20.6912
   9       20.8759

 -0.1875000E+00 -0.3125000E+00  0.6250000E-01  0.2343750E-01
   1       -0.4665
   2        0.5743
   3        2.1642
   4        3.5324
   5        4.2999
   6        5.3171
   7       19.4017
   8       22.0379
   9       23.6741

 -0.1875000E+00 -0.1875000E+00  0.6250000E-01  0.1171875E-01
   1       -1.5195
   2        0.8500
   3        2.5867
   4        3.0600
   5        3.3895
   6        4.4184
   7       22.8329
   8       24.6064
   9       25.0418

  0.1875000E+00  0.1875000E+00  0.1875000E+00  0.3906250E-02
   1       -2.5314
   2        1.6545
   3        2.2867
   4        2.2867
   5        3.7895
   6        3.7895
   7       21.9943
   8       24.0727
   9       28.7764

  0.3125000E+00  0.1875000E+00  0.1875000E+00  0.1171875E-01
   1       -1.5538
   2        1.3385
   3        2.3113
   4        2.6585
   5        3.2954
   6        4.7121
   7       20.5888
   8       23.3392
   9       26.8199

  0.4375000E+00  0.1875000E+00  0.1875000E+00  0.1171875E-01
   1       -0.2412
   2        1.3315
   3        1.9281
   4        2.8608
   5        3.6045
   6        6.2699
   7       17.5394
   8       20.7756
   9       25.2244

 -0.4375000E+00  0.1875000E+00  0.1875000E+00  0.1171875E-01
   1       -0.1723
   2        1.4067
   3        2.6388
   4        2.6730
   5        4.7403
   6        8.3624
   7       12.8244
   8       20.4770
   9       24.3079

 -0.3125000E+00  0.1875000E+00  0.1875000E+00  0.1171875E-01
   1       -0.3139
   2        1.3402
   3        2.4654
   4        2.7793
   5        5.3840
   6        8.3062
   7       12.4113
   8       21.6317
   9       23.5589

 -0.1875000E+00  0.1875000E+00  0.1875000E+00  0.1171875E-01
   1       -0.4798
   2        0.9794
   3        1.9997
   4        3.0486
   5        5.0823
   6        5.2802
   7       17.4533
   8       23.4659
   9       23.4910

  0.3125000E+00  0.3125000E+00  0.1875000E+00  0.1171875E-01
   1       -1.1439
   2        1.2849
   3        2.1586
   4        2.6582
   5        4.1947
   6        4.6584
   7       19.0230
   8       24.2110
   9       25.4689

  0.4375000E+00  0.3125000E+00  0.1875000E+00  0.2343750E-01
   1       -0.0662
   2        0.9521
   3        1.6825
   4        3.3751
   5        4.1191
   6        6.2793
   7       17.6292
   8       20.7605
   9       23.8071

 -0.4375000E+00  0.3125000E+00  0.1875000E+00  0.2343750E-01
   1        0.6473
   2        1.0327
   3        1.3869
   4        3.5620
   5        4.6589
   6        8.5760
   7       15.0707
   8       17.9900
   9       22.0755

 -0.3125000E+00  0.3125000E+00  0.1875000E+00  0.2343750E-01
   1        0.3709
   2        0.9018
   3        1.9817
   4        3.4421
   5        5.1793
   6       10.8371
   7       11.8505
   8       18.8079
   9       20.5640

 -0.1875000E+00  0.3125000E+00  0.1875000E+00  0.2343750E-01
   1        0.1827
   2        0.6741
   3        1.7936
   4        3.9130
   5        4.7549
   6        7.5116
   7       16.1981
   8       19.2500
   9       21.5503

  0.4375000E+00  0.4375000E+00  0.1875000E+00  0.1171875E-01
   1       -0.2526
   2        0.5992
   3        2.3950
   4        3.5451
   5        5.3782
   6        6.8263
   7       15.8409
   8       21.1845
   9       21.7724

 -0.4375000E+00  0.4375000E+00  0.1875000E+00  0.2343750E-01
   1        0.0340
   2        0.4043
   3        2.3797
   4        4.2488
   5        5.2635
   6        9.2183
   7       14.8732
   8       17.7494
   9       19.4482

 -0.3125000E+00  0.4375000E+00  0.1875000E+00  0.2343750E-01
   1        0.3403
   2        0.9307
   3        1.8163
   4        3.7248
   5        5.6034
   6       12.1729
   7       13.5816
   8       15.4729
   9       18.2421

 -0.1875000E+00  0.4375000E+00  0.1875000E+00  0.2343750E-01
   1        0.5556
   2        0.9212
   3        1.5523
   4        3.7638
   5        5.2205
   6       10.2970
   7       14.1600
   8       16.8085
   9       19.7027

 -0.4375000E+00 -0.4375000E+00  0.1875000E+00  0.1171875E-01
   1       -0.4383
   2        0.1024
   3        3.6078
   4        4.4906
   5        5.4192
   6       10.6152
   7       13.1665
   8       16.5118
   9       19.9210

 -0.3125000E+00 -0.4375000E+00  0.1875000E+00  0.2343750E-01
   1       -0.1232
   2        0.2733
   3        2.8910
   4        4.2533
   5        5.6065
   6       11.1556
   7       13.5348
   8       16.4066
   9       18.4104

 -0.3125000E+00 -0.3125000E+00  0.1875000E+00  0.1171875E-01
   1       -0.3322
   2        0.2716
   3        3.1001
   4        4.0752
   5        5.4816
   6        8.7175
   7       14.3686
   8       18.5188
   9       20.5558

  0.3125000E+00  0.3125000E+00  0.3125000E+00  0.3906250E-02
   1       -1.3233
   2        2.1811
   3        2.1811
   4        2.4183
   5        4.4288
   6        4.4288
   7       17.0106
   8       23.3423
   9       28.4511

  0.4375000E+00  0.3125000E+00  0.3125000E+00  0.1171875E-01
   1       -0.6742
   2        1.8385
   3        2.3783
   4        2.4022
   5        4.2134
   6        6.0982
   7       15.5696
   8       22.5082
   9       24.6517

 -0.4375000E+00  0.3125000E+00  0.3125000E+00  0.1171875E-01
   1        0.3678
   2        1.3627
   3        1.8104
   4        3.1174
   5        4.2727
   6        8.3115
   7       15.0914
   8       17.9602
   9       24.9674

 -0.3125000E+00  0.3125000E+00  0.3125000E+00  0.1171875E-01
   1        0.0684
   2        0.9966
   3        2.3469
   4        3.6991
   5        4.9280
   6       10.6734
   7       13.1355
   8       16.2930
   9       22.5217

  0.4375000E+00  0.4375000E+00  0.3125000E+00  0.1171875E-01
   1       -0.6977
   2        1.7024
   3        2.4071
   4        2.6555
   5        5.2927
   6        6.3327
   7       13.8011
   8       22.8562
   9       24.7357

 -0.4375000E+00  0.4375000E+00  0.3125000E+00  0.2343750E-01
   1        0.0505
   2        1.1733
   3        2.1572
   4        3.0602
   5        5.0355
   6        8.7984
   7       12.8275
   8       20.5614
   9       22.0429

 -0.3125000E+00  0.4375000E+00  0.3125000E+00  0.2343750E-01
   1        0.4055
   2        0.9603
   3        1.8520
   4        3.6590
   5        5.2216
   6       11.1468
   7       13.3462
   8       16.1921
   9       20.1609

 -0.4375000E+00 -0.4375000E+00  0.3125000E+00  0.1171875E-01
   1       -0.0291
   2        1.0767
   3        2.3672
   4        3.2595
   5        5.2169
   6       10.6260
   7       11.3089
   8       19.0403
   9       22.8447

  0.4375000E+00  0.4375000E+00  0.4375000E+00  0.3906250E-02
   1       -1.1273
   2        1.9376
   3        1.9376
   4        5.0899
   5        5.1937
   6        5.1937
   7       12.2562
   8       22.2068
   9       26.4458

 -0.4375000E+00  0.4375000E+00  0.4375000E+00  0.1171875E-01
   1       -0.6842
   2        1.6104
   3        2.2601
   4        3.5425
   5        5.1523
   6        8.0390
   7       11.3271
   8       22.2350
   9       24.1814
