       N       E                     dE             d eps       ncg     rms          rms(c)
DAV:   1     0.431767252345E+02    0.43177E+02   -0.48416E+03  1296   0.839E+02

DAV:   2    -0.258719710716E+01   -0.45764E+02   -0.41877E+02  1102   0.212E+02

DAV:   3    -0.310568445688E+01   -0.51849E+00   -0.51826E+00  1266   0.273E+01

DAV:   4    -0.310704557318E+01   -0.13611E-02   -0.13611E-02  1229   0.129E+00

DAV:   5    -0.310705572286E+01   -0.10150E-04   -0.10150E-04  1253   0.104E-01    0.292E+00
RMM:   6    -0.289381031558E+01    0.21325E+00   -0.30676E-01  1086   0.778E+00    0.929E-01
RMM:   7    -0.286419503862E+01    0.29615E-01   -0.39385E-02  1136   0.238E+00    0.253E-01
RMM:   8    -0.285945104243E+01    0.47440E-02   -0.14310E-03  1168   0.676E-01    0.105E-02
RMM:   9    -0.285946092252E+01   -0.98801E-05   -0.19183E-05   683   0.619E-02

   1 F= -.28594609E+01 E0= -.28589967E+01  d E =-.928514E-03

