PROCAR lm decomposed
# of k-points:   60         # of bands:   9         # of ions:   1

 k-point    1 :    0.06250000 0.06250000 0.06250000     weight = 0.00390625

band   1 # energy   -3.63334903 # occ.  2.00000000

ion      s     py     pz     px    dxy    dyz    dz2    dxz    dx2    tot
  1  0.681  0.002  0.002  0.002  0.000  0.000  0.000  0.000  0.000  0.688

band   2 # energy    1.89777786 # occ.  2.00000000

ion      s     py     pz     px    dxy    dyz    dz2    dxz    dx2    tot
  1  0.000  0.001  0.001  0.001  0.313  0.313  0.000  0.313  0.000  0.942

band   3 # energy    2.01127282 # occ.  2.00000000

ion      s     py     pz     px    dxy    dyz    dz2    dxz    dx2    tot
  1  0.000  0.000  0.000  0.000  0.466  0.000  0.001  0.478  0.000  0.945

band   4 # energy    2.01127315 # occ.  2.00000000

ion      s     py     pz     px    dxy    dyz    dz2    dxz    dx2    tot
  1  0.000  0.000  0.000  0.000  0.164  0.629  0.000  0.151  0.001  0.945

band   5 # energy    3.80411818 # occ.  2.00000000

ion      s     py     pz     px    dxy    dyz    dz2    dxz    dx2    tot
  1  0.000  0.000  0.000  0.000  0.000  0.001  0.219  0.000  0.750  0.970

band   6 # energy    3.80411835 # occ.  2.00000000

ion      s     py     pz     px    dxy    dyz    dz2    dxz    dx2    tot
  1  0.000  0.000  0.000  0.000  0.001  0.000  0.750  0.001  0.219  0.970

band   7 # energy   22.94814066 # occ.  0.00000000

ion      s     py     pz     px    dxy    dyz    dz2    dxz    dx2    tot
  1  0.000  0.000  0.000  0.000  0.007  0.007  0.000  0.007  0.000  0.021

band   8 # energy   26.33021165 # occ.  0.00000000

ion      s     py     pz     px    dxy    dyz    dz2    dxz    dx2    tot
  1  0.018  0.053  0.053  0.052  0.007  0.007  0.000  0.007  0.000  0.198

band   9 # energy   27.54426862 # occ.  0.00000000

ion      s     py     pz     px    dxy    dyz    dz2    dxz    dx2    tot
  1  0.000  0.116  0.030  0.029  0.001  0.001  0.003  0.005  0.007  0.193


 k-point    2 :    0.18750000 0.06250000 0.06250000     weight = 0.01171875

band   1 # energy   -2.86172688 # occ.  2.00000000

ion      s     py     pz     px    dxy    dyz    dz2    dxz    dx2    tot
  1  0.637  0.020  0.020  0.002  0.001  0.008  0.000  0.001  0.001  0.690

band   2 # energy    1.63022484 # occ.  2.00000000

ion      s     py     pz     px    dxy    dyz    dz2    dxz    dx2    tot
  1  0.001  0.001  0.001  0.008  0.443  0.027  0.000  0.443  0.000  0.925

band   3 # energy    2.25886738 # occ.  2.00000000

ion      s     py     pz     px    dxy    dyz    dz2    dxz    dx2    tot
  1  0.000  0.000  0.000  0.000  0.464  0.000  0.012  0.464  0.004  0.946

band   4 # energy    2.28308135 # occ.  2.00000000

ion      s     py     pz     px    dxy    dyz    dz2    dxz    dx2    tot
  1  0.001  0.004  0.004  0.000  0.014  0.833  0.018  0.014  0.055  0.942

band   5 # energy    3.54065758 # occ.  2.00000000

ion      s     py     pz     px    dxy    dyz    dz2    dxz    dx2    tot
  1  0.000  0.000  0.000  0.000  0.008  0.000  0.706  0.008  0.235  0.958

band   6 # energy    3.94111798 # occ.  2.00000000

ion      s     py     pz     px    dxy    dyz    dz2    dxz    dx2    tot
  1  0.001  0.001  0.001  0.000  0.001  0.069  0.223  0.001  0.669  0.966

band   7 # energy   23.38440382 # occ.  0.00000000

ion      s     py     pz     px    dxy    dyz    dz2    dxz    dx2    tot
  1  0.036  0.048  0.048  0.042  0.059  0.049  0.001  0.059  0.004  0.346

band   8 # energy   23.96049658 # occ.  0.00000000

ion      s     py     pz     px    dxy    dyz    dz2    dxz    dx2    tot
  1  0.023  0.026  0.026  0.000  0.019  0.010  0.002  0.019  0.005  0.131

band   9 # energy   27.18843681 # occ.  0.00000000

ion      s     py     pz     px    dxy    dyz    dz2    dxz    dx2    tot
  1  0.001  0.009  0.009  0.239  0.035  0.016  0.003  0.035  0.009  0.357


 k-point    3 :    0.31250000 0.06250000 0.06250000     weight = 0.01171875

band   1 # energy   -1.48440685 # occ.  2.00000000

ion      s     py     pz     px    dxy    dyz    dz2    dxz    dx2    tot
  1  0.474  0.030  0.030  0.006  0.056  0.080  0.000  0.056  0.001  0.734

band   2 # energy    1.74430197 # occ.  2.00000000

ion      s     py     pz     px    dxy    dyz    dz2    dxz    dx2    tot
  1  0.054  0.024  0.024  0.037  0.358  0.009  0.000  0.358  0.001  0.865

band   3 # energy    2.27900908 # occ.  2.00000000

ion      s     py     pz     px    dxy    dyz    dz2    dxz    dx2    tot
  1  0.006  0.008  0.008  0.000  0.011  0.499  0.096  0.011  0.287  0.926

band   4 # energy    2.34881902 # occ.  2.00000000

ion      s     py     pz     px    dxy    dyz    dz2    dxz    dx2    tot
  1  0.000  0.000  0.000  0.000  0.287  0.000  0.275  0.287  0.092  0.941

band   5 # energy    3.83745295 # occ.  2.00000000

ion      s     py     pz     px    dxy    dyz    dz2    dxz    dx2    tot
  1  0.000  0.001  0.001  0.000  0.187  0.000  0.434  0.187  0.145  0.955

band   6 # energy    4.56517015 # occ.  2.00000000

ion      s     py     pz     px    dxy    dyz    dz2    dxz    dx2    tot
  1  0.012  0.006  0.006  0.000  0.015  0.338  0.142  0.015  0.427  0.962

band   7 # energy   18.81023590 # occ.  0.00000000

ion      s     py     pz     px    dxy    dyz    dz2    dxz    dx2    tot
  1  0.151  0.090  0.090  0.092  0.069  0.079  0.001  0.069  0.004  0.644

band   8 # energy   23.80915021 # occ.  0.00000000

ion      s     py     pz     px    dxy    dyz    dz2    dxz    dx2    tot
  1  0.000  0.001  0.001  0.043  0.071  0.002  0.003  0.071  0.009  0.201

band   9 # energy   27.12721907 # occ.  0.00000000

ion      s     py     pz     px    dxy    dyz    dz2    dxz    dx2    tot
  1  0.013  0.092  0.092  0.226  0.040  0.093  0.002  0.040  0.006  0.604


 k-point    4 :    0.43750000 0.06250000 0.06250000     weight = 0.01171875

band   1 # energy   -1.00725859 # occ.  2.00000000

ion      s     py     pz     px    dxy    dyz    dz2    dxz    dx2    tot
  1  0.245  0.008  0.008  0.000  0.184  0.193  0.000  0.184  0.000  0.824

band   2 # energy    1.94284193 # occ.  2.00000000

ion      s     py     pz     px    dxy    dyz    dz2    dxz    dx2    tot
  1  0.000  0.001  0.001  0.001  0.065  0.285  0.128  0.065  0.385  0.930

band   3 # energy    2.07550897 # occ.  2.00000000

ion      s     py     pz     px    dxy    dyz    dz2    dxz    dx2    tot
  1  0.000  0.000  0.000  0.000  0.194  0.000  0.409  0.194  0.136  0.934

band   4 # energy    3.60696805 # occ.  2.00000000

ion      s     py     pz     px    dxy    dyz    dz2    dxz    dx2    tot
  1  0.087  0.085  0.085  0.087  0.149  0.015  0.029  0.149  0.087  0.771

band   5 # energy    4.79037090 # occ.  2.00000000

ion      s     py     pz     px    dxy    dyz    dz2    dxz    dx2    tot
  1  0.000  0.001  0.001  0.000  0.286  0.000  0.297  0.286  0.099  0.970

band   6 # energy    5.73435584 # occ.  2.00000000

ion      s     py     pz     px    dxy    dyz    dz2    dxz    dx2    tot
  1  0.054  0.039  0.039  0.021  0.010  0.421  0.079  0.010  0.238  0.911

band   7 # energy   13.71908387 # occ.  0.00000000

ion      s     py     pz     px    dxy    dyz    dz2    dxz    dx2    tot
  1  0.314  0.061  0.061  0.077  0.100  0.083  0.001  0.100  0.003  0.801

band   8 # energy   22.59282879 # occ.  0.00000000

ion      s     py     pz     px    dxy    dyz    dz2    dxz    dx2    tot
  1  0.000  0.004  0.004  0.024  0.019  0.001  0.004  0.019  0.011  0.086

band   9 # energy   25.63080358 # occ.  0.00000000

ion      s     py     pz     px    dxy    dyz    dz2    dxz    dx2    tot
  1  0.013  0.088  0.086  0.279  0.036  0.011  0.002  0.036  0.005  0.555


 k-point    5 :   -0.43750000 0.06250000 0.06250000     weight = 0.01171875

band   1 # energy   -1.01628531 # occ.  2.00000000

ion      s     py     pz     px    dxy    dyz    dz2    dxz    dx2    tot
  1  0.201  0.000  0.000  0.005  0.204  0.226  0.000  0.204  0.000  0.840

band   2 # energy    1.81746194 # occ.  2.00000000

ion      s     py     pz     px    dxy    dyz    dz2    dxz    dx2    tot
  1  0.000  0.001  0.001  0.000  0.067  0.224  0.142  0.067  0.425  0.926

band   3 # energy    2.00194122 # occ.  2.00000000

ion      s     py     pz     px    dxy    dyz    dz2    dxz    dx2    tot
  1  0.000  0.001  0.001  0.000  0.189  0.000  0.416  0.189  0.139  0.933

band   4 # energy    4.40821612 # occ.  2.00000000

ion      s     py     pz     px    dxy    dyz    dz2    dxz    dx2    tot
  1  0.004  0.065  0.065  0.060  0.054  0.320  0.056  0.054  0.167  0.845

band   5 # energy    5.32470841 # occ.  2.00000000

ion      s     py     pz     px    dxy    dyz    dz2    dxz    dx2    tot
  1  0.000  0.000  0.000  0.000  0.295  0.000  0.294  0.295  0.098  0.983

band   6 # energy    6.75739048 # occ.  2.00000000

ion      s     py     pz     px    dxy    dyz    dz2    dxz    dx2    tot
  1  0.011  0.121  0.121  0.140  0.057  0.082  0.039  0.057  0.116  0.743

band   7 # energy   11.31770276 # occ.  0.00000000

ion      s     py     pz     px    dxy    dyz    dz2    dxz    dx2    tot
  1  0.482  0.009  0.009  0.002  0.126  0.139  0.000  0.126  0.000  0.894

band   8 # energy   22.21520638 # occ.  0.00000000

ion      s     py     pz     px    dxy    dyz    dz2    dxz    dx2    tot
  1  0.000  0.005  0.005  0.015  0.001  0.010  0.004  0.001  0.012  0.054

band   9 # energy   25.68093340 # occ.  0.00000000

ion      s     py     pz     px    dxy    dyz    dz2    dxz    dx2    tot
  1  0.010  0.198  0.008  0.245  0.015  0.011  0.015  0.005  0.009  0.516


 k-point    6 :   -0.31250000 0.06250000 0.06250000     weight = 0.01171875

band   1 # energy   -1.05585574 # occ.  2.00000000

ion      s     py     pz     px    dxy    dyz    dz2    dxz    dx2    tot
  1  0.297  0.004  0.004  0.023  0.151  0.170  0.001  0.151  0.002  0.803

band   2 # energy    2.00369078 # occ.  2.00000000

ion      s     py     pz     px    dxy    dyz    dz2    dxz    dx2    tot
  1  0.001  0.000  0.000  0.000  0.087  0.239  0.130  0.087  0.389  0.931

band   3 # energy    2.19986687 # occ.  2.00000000

ion      s     py     pz     px    dxy    dyz    dz2    dxz    dx2    tot
  1  0.000  0.001  0.001  0.000  0.232  0.000  0.353  0.232  0.118  0.937

band   4 # energy    2.79449213 # occ.  2.00000000

ion      s     py     pz     px    dxy    dyz    dz2    dxz    dx2    tot
  1  0.108  0.069  0.069  0.066  0.019  0.356  0.020  0.019  0.061  0.788

band   5 # energy    4.90437263 # occ.  2.00000000

ion      s     py     pz     px    dxy    dyz    dz2    dxz    dx2    tot
  1  0.043  0.013  0.013  0.036  0.178  0.127  0.084  0.178  0.252  0.924

band   6 # energy    4.94842666 # occ.  2.00000000

ion      s     py     pz     px    dxy    dyz    dz2    dxz    dx2    tot
  1  0.000  0.001  0.001  0.000  0.245  0.000  0.362  0.245  0.121  0.975

band   7 # energy   15.34638117 # occ.  0.00000000

ion      s     py     pz     px    dxy    dyz    dz2    dxz    dx2    tot
  1  0.250  0.088  0.088  0.072  0.082  0.090  0.001  0.082  0.002  0.757

band   8 # energy   23.00159966 # occ.  0.00000000

ion      s     py     pz     px    dxy    dyz    dz2    dxz    dx2    tot
  1  0.000  0.010  0.010  0.010  0.005  0.040  0.004  0.005  0.012  0.094

band   9 # energy   26.38700130 # occ.  0.00000000

ion      s     py     pz     px    dxy    dyz    dz2    dxz    dx2    tot
  1  0.000  0.231  0.234  0.000  0.061  0.000  0.011  0.061  0.004  0.603


 k-point    7 :   -0.18750000 0.06250000 0.06250000     weight = 0.01171875

band   1 # energy   -1.91811674 # occ.  2.00000000

ion      s     py     pz     px    dxy    dyz    dz2    dxz    dx2    tot
  1  0.551  0.013  0.013  0.044  0.031  0.022  0.001  0.031  0.003  0.708

band   2 # energy    1.53440760 # occ.  2.00000000

ion      s     py     pz     px    dxy    dyz    dz2    dxz    dx2    tot
  1  0.024  0.017  0.017  0.011  0.097  0.630  0.000  0.097  0.000  0.893

band   3 # energy    2.33790296 # occ.  2.00000000

ion      s     py     pz     px    dxy    dyz    dz2    dxz    dx2    tot
  1  0.001  0.002  0.002  0.003  0.221  0.179  0.077  0.221  0.231  0.937

band   4 # energy    2.40543132 # occ.  2.00000000

ion      s     py     pz     px    dxy    dyz    dz2    dxz    dx2    tot
  1  0.000  0.002  0.002  0.000  0.360  0.000  0.164  0.360  0.055  0.943

band   5 # energy    3.71408877 # occ.  2.00000000

ion      s     py     pz     px    dxy    dyz    dz2    dxz    dx2    tot
  1  0.009  0.001  0.001  0.007  0.107  0.086  0.158  0.107  0.475  0.950

band   6 # energy    4.19611712 # occ.  2.00000000

ion      s     py     pz     px    dxy    dyz    dz2    dxz    dx2    tot
  1  0.000  0.001  0.001  0.000  0.111  0.000  0.557  0.111  0.186  0.966

band   7 # energy   20.50314939 # occ.  0.00000000

ion      s     py     pz     px    dxy    dyz    dz2    dxz    dx2    tot
  1  0.110  0.089  0.089  0.076  0.069  0.059  0.001  0.069  0.004  0.567

band   8 # energy   24.20544683 # occ.  0.00000000

ion      s     py     pz     px    dxy    dyz    dz2    dxz    dx2    tot
  1  0.001  0.007  0.007  0.000  0.022  0.097  0.002  0.022  0.006  0.164

band   9 # energy   27.46075119 # occ.  0.00000000

ion      s     py     pz     px    dxy    dyz    dz2    dxz    dx2    tot
  1  0.000  0.187  0.186  0.000  0.103  0.000  0.023  0.103  0.008  0.610


 k-point    8 :   -0.06250000 0.06250000 0.06250000     weight = 0.01171875

band   1 # energy   -3.23526574 # occ.  2.00000000

ion      s     py     pz     px    dxy    dyz    dz2    dxz    dx2    tot
  1  0.660  0.002  0.002  0.021  0.001  0.000  0.000  0.001  0.001  0.689

band   2 # energy    1.69742110 # occ.  2.00000000

ion      s     py     pz     px    dxy    dyz    dz2    dxz    dx2    tot
  1  0.000  0.001  0.001  0.000  0.049  0.832  0.000  0.049  0.000  0.934

band   3 # energy    2.18580666 # occ.  2.00000000

ion      s     py     pz     px    dxy    dyz    dz2    dxz    dx2    tot
  1  0.000  0.001  0.001  0.001  0.416  0.102  0.002  0.416  0.005  0.944

band   4 # energy    2.19321622 # occ.  2.00000000

ion      s     py     pz     px    dxy    dyz    dz2    dxz    dx2    tot
  1  0.000  0.002  0.002  0.000  0.466  0.000  0.007  0.466  0.002  0.945

band   5 # energy    3.57163465 # occ.  2.00000000

ion      s     py     pz     px    dxy    dyz    dz2    dxz    dx2    tot
  1  0.001  0.000  0.000  0.000  0.003  0.001  0.238  0.003  0.714  0.960

band   6 # energy    3.91720870 # occ.  2.00000000

ion      s     py     pz     px    dxy    dyz    dz2    dxz    dx2    tot
  1  0.000  0.000  0.000  0.000  0.005  0.000  0.720  0.005  0.240  0.970

band   7 # energy   23.41864122 # occ.  0.00000000

ion      s     py     pz     px    dxy    dyz    dz2    dxz    dx2    tot
  1  0.000  0.003  0.003  0.001  0.009  0.062  0.000  0.009  0.000  0.087

band   8 # energy   25.10203281 # occ.  0.00000000

ion      s     py     pz     px    dxy    dyz    dz2    dxz    dx2    tot
  1  0.038  0.039  0.039  0.067  0.018  0.001  0.004  0.018  0.012  0.236

band   9 # energy   27.27122509 # occ.  0.00000000

ion      s     py     pz     px    dxy    dyz    dz2    dxz    dx2    tot
  1  0.000  0.127  0.105  0.000  0.041  0.000  0.005  0.036  0.003  0.317


 k-point    9 :    0.18750000 0.18750000 0.06250000     weight = 0.01171875

band   1 # energy   -2.48424983 # occ.  2.00000000

ion      s     py     pz     px    dxy    dyz    dz2    dxz    dx2    tot
  1  0.613  0.002  0.056  0.002  0.000  0.002  0.012  0.002  0.000  0.690

band   2 # energy    1.31634926 # occ.  2.00000000

ion      s     py     pz     px    dxy    dyz    dz2    dxz    dx2    tot
  1  0.000  0.001  0.000  0.001  0.889  0.015  0.000  0.015  0.000  0.922

band   3 # energy    2.51685652 # occ.  2.00000000

ion      s     py     pz     px    dxy    dyz    dz2    dxz    dx2    tot
  1  0.000  0.004  0.000  0.004  0.031  0.404  0.095  0.404  0.000  0.942

band   4 # energy    2.54947864 # occ.  2.00000000

ion      s     py     pz     px    dxy    dyz    dz2    dxz    dx2    tot
  1  0.000  0.004  0.000  0.004  0.000  0.454  0.000  0.454  0.028  0.944

band   5 # energy    3.23619220 # occ.  2.00000000

ion      s     py     pz     px    dxy    dyz    dz2    dxz    dx2    tot
  1  0.010  0.000  0.004  0.000  0.003  0.045  0.836  0.045  0.000  0.944

band   6 # energy    4.13060585 # occ.  2.00000000

ion      s     py     pz     px    dxy    dyz    dz2    dxz    dx2    tot
  1  0.000  0.000  0.000  0.000  0.000  0.014  0.000  0.014  0.943  0.971

band   7 # energy   23.82211705 # occ.  0.00000000

ion      s     py     pz     px    dxy    dyz    dz2    dxz    dx2    tot
  1  0.040  0.058  0.036  0.058  0.067  0.044  0.027  0.044  0.000  0.373

band   8 # energy   24.43121040 # occ.  0.00000000

ion      s     py     pz     px    dxy    dyz    dz2    dxz    dx2    tot
  1  0.016  0.003  0.014  0.003  0.101  0.000  0.023  0.000  0.000  0.160

band   9 # energy   26.32294536 # occ.  0.00000000

ion      s     py     pz     px    dxy    dyz    dz2    dxz    dx2    tot
  1  0.000  0.170  0.000  0.162  0.000  0.091  0.000  0.087  0.005  0.516


 k-point   10 :    0.31250000 0.18750000 0.06250000     weight = 0.02343750

band   1 # energy   -1.24989722 # occ.  2.00000000

ion      s     py     pz     px    dxy    dyz    dz2    dxz    dx2    tot
  1  0.498  0.013  0.087  0.001  0.008  0.040  0.053  0.007  0.000  0.708

band   2 # energy    0.97606709 # occ.  2.00000000

ion      s     py     pz     px    dxy    dyz    dz2    dxz    dx2    tot
  1  0.005  0.002  0.002  0.013  0.816  0.002  0.003  0.060  0.000  0.903

band   3 # energy    2.26352581 # occ.  2.00000000

ion      s     py     pz     px    dxy    dyz    dz2    dxz    dx2    tot
  1  0.005  0.006  0.001  0.000  0.012  0.337  0.509  0.017  0.035  0.924

band   4 # energy    2.98394053 # occ.  2.00000000

ion      s     py     pz     px    dxy    dyz    dz2    dxz    dx2    tot
  1  0.002  0.002  0.001  0.007  0.043  0.111  0.036  0.603  0.139  0.944

band   5 # energy    3.61804364 # occ.  2.00000000

ion      s     py     pz     px    dxy    dyz    dz2    dxz    dx2    tot
  1  0.026  0.005  0.018  0.004  0.027  0.153  0.278  0.232  0.192  0.935

band   6 # energy    4.70192502 # occ.  2.00000000

ion      s     py     pz     px    dxy    dyz    dz2    dxz    dx2    tot
  1  0.014  0.005  0.006  0.000  0.000  0.289  0.045  0.005  0.600  0.966

band   7 # energy   20.89633723 # occ.  0.00000000

ion      s     py     pz     px    dxy    dyz    dz2    dxz    dx2    tot
  1  0.115  0.149  0.068  0.063  0.031  0.091  0.022  0.037  0.006  0.582

band   8 # energy   23.53651258 # occ.  0.00000000

ion      s     py     pz     px    dxy    dyz    dz2    dxz    dx2    tot
  1  0.006  0.030  0.002  0.255  0.138  0.016  0.013  0.140  0.006  0.607

band   9 # energy   25.71844314 # occ.  0.00000000

ion      s     py     pz     px    dxy    dyz    dz2    dxz    dx2    tot
  1  0.013  0.084  0.064  0.039  0.018  0.032  0.127  0.012  0.001  0.389


 k-point   11 :    0.43750000 0.18750000 0.06250000     weight = 0.02343750

band   1 # energy   -0.43753570 # occ.  2.00000000

ion      s     py     pz     px    dxy    dyz    dz2    dxz    dx2    tot
  1  0.236  0.005  0.046  0.001  0.244  0.137  0.050  0.092  0.000  0.810

band   2 # energy    1.57693527 # occ.  2.00000000

ion      s     py     pz     px    dxy    dyz    dz2    dxz    dx2    tot
  1  0.019  0.034  0.013  0.026  0.113  0.048  0.539  0.045  0.017  0.854

band   3 # energy    1.82244558 # occ.  2.00000000

ion      s     py     pz     px    dxy    dyz    dz2    dxz    dx2    tot
  1  0.060  0.005  0.032  0.017  0.433  0.225  0.083  0.001  0.032  0.888

band   4 # energy    2.79995193 # occ.  2.00000000

ion      s     py     pz     px    dxy    dyz    dz2    dxz    dx2    tot
  1  0.005  0.005  0.007  0.002  0.045  0.079  0.036  0.313  0.442  0.934

band   5 # energy    4.86461575 # occ.  2.00000000

ion      s     py     pz     px    dxy    dyz    dz2    dxz    dx2    tot
  1  0.009  0.002  0.014  0.007  0.034  0.033  0.067  0.449  0.342  0.958

band   6 # energy    6.20172387 # occ.  2.00000000

ion      s     py     pz     px    dxy    dyz    dz2    dxz    dx2    tot
  1  0.102  0.025  0.064  0.012  0.012  0.417  0.138  0.017  0.120  0.908

band   7 # energy   15.64052541 # occ.  0.00000000

ion      s     py     pz     px    dxy    dyz    dz2    dxz    dx2    tot
  1  0.238  0.106  0.070  0.110  0.080  0.054  0.009  0.064  0.006  0.737

band   8 # energy   22.75254224 # occ.  0.00000000

ion      s     py     pz     px    dxy    dyz    dz2    dxz    dx2    tot
  1  0.006  0.064  0.000  0.218  0.085  0.023  0.042  0.059  0.032  0.530

band   9 # energy   23.59740436 # occ.  0.00000000

ion      s     py     pz     px    dxy    dyz    dz2    dxz    dx2    tot
  1  0.034  0.020  0.150  0.088  0.001  0.001  0.130  0.029  0.005  0.458


 k-point   12 :   -0.43750000 0.18750000 0.06250000     weight = 0.02343750

band   1 # energy   -0.40259416 # occ.  2.00000000

ion      s     py     pz     px    dxy    dyz    dz2    dxz    dx2    tot
  1  0.155  0.000  0.019  0.009  0.310  0.204  0.010  0.140  0.001  0.847

band   2 # energy    1.39926997 # occ.  2.00000000

ion      s     py     pz     px    dxy    dyz    dz2    dxz    dx2    tot
  1  0.000  0.014  0.000  0.002  0.088  0.136  0.570  0.015  0.067  0.893

band   3 # energy    2.54817999 # occ.  2.00000000

ion      s     py     pz     px    dxy    dyz    dz2    dxz    dx2    tot
  1  0.000  0.000  0.000  0.009  0.001  0.090  0.083  0.239  0.509  0.932

band   4 # energy    2.95926067 # occ.  2.00000000

ion      s     py     pz     px    dxy    dyz    dz2    dxz    dx2    tot
  1  0.006  0.052  0.063  0.048  0.352  0.166  0.093  0.032  0.035  0.846

band   5 # energy    5.23692746 # occ.  2.00000000

ion      s     py     pz     px    dxy    dyz    dz2    dxz    dx2    tot
  1  0.001  0.000  0.000  0.000  0.037  0.173  0.031  0.429  0.307  0.979

band   6 # energy    8.87248004 # occ.  0.00000000

ion      s     py     pz     px    dxy    dyz    dz2    dxz    dx2    tot
  1  0.029  0.103  0.163  0.111  0.048  0.130  0.144  0.023  0.018  0.768

band   7 # energy   11.27137327 # occ.  0.00000000

ion      s     py     pz     px    dxy    dyz    dz2    dxz    dx2    tot
  1  0.478  0.016  0.001  0.034  0.140  0.083  0.001  0.103  0.004  0.860

band   8 # energy   22.06171434 # occ.  0.00000000

ion      s     py     pz     px    dxy    dyz    dz2    dxz    dx2    tot
  1  0.021  0.024  0.185  0.006  0.004  0.049  0.146  0.018  0.001  0.455

band   9 # energy   22.99328601 # occ.  0.00000000

ion      s     py     pz     px    dxy    dyz    dz2    dxz    dx2    tot
  1  0.035  0.020  0.068  0.277  0.066  0.000  0.001  0.035  0.073  0.577


 k-point   13 :   -0.31250000 0.18750000 0.06250000     weight = 0.02343750

band   1 # energy   -0.33379018 # occ.  2.00000000

ion      s     py     pz     px    dxy    dyz    dz2    dxz    dx2    tot
  1  0.197  0.008  0.006  0.028  0.241  0.214  0.000  0.127  0.006  0.830

band   2 # energy    1.55877725 # occ.  2.00000000

ion      s     py     pz     px    dxy    dyz    dz2    dxz    dx2    tot
  1  0.000  0.009  0.001  0.000  0.218  0.104  0.474  0.005  0.092  0.904

band   3 # energy    2.32719161 # occ.  2.00000000

ion      s     py     pz     px    dxy    dyz    dz2    dxz    dx2    tot
  1  0.039  0.042  0.053  0.033  0.083  0.189  0.033  0.155  0.218  0.846

band   4 # energy    2.68360567 # occ.  2.00000000

ion      s     py     pz     px    dxy    dyz    dz2    dxz    dx2    tot
  1  0.014  0.011  0.004  0.028  0.000  0.218  0.165  0.138  0.331  0.909

band   5 # energy    4.64339673 # occ.  2.00000000

ion      s     py     pz     px    dxy    dyz    dz2    dxz    dx2    tot
  1  0.001  0.000  0.003  0.008  0.021  0.141  0.046  0.467  0.274  0.961

band   6 # energy    7.21185123 # occ.  1.99904451

ion      s     py     pz     px    dxy    dyz    dz2    dxz    dx2    tot
  1  0.140  0.044  0.021  0.071  0.386  0.004  0.206  0.004  0.008  0.884

band   7 # energy   14.10708642 # occ.  0.00000000

ion      s     py     pz     px    dxy    dyz    dz2    dxz    dx2    tot
  1  0.282  0.076  0.109  0.061  0.041  0.095  0.033  0.078  0.000  0.774

band   8 # energy   21.55331629 # occ.  0.00000000

ion      s     py     pz     px    dxy    dyz    dz2    dxz    dx2    tot
  1  0.028  0.043  0.270  0.022  0.008  0.098  0.071  0.077  0.000  0.617

band   9 # energy   23.80460607 # occ.  0.00000000

ion      s     py     pz     px    dxy    dyz    dz2    dxz    dx2    tot
  1  0.025  0.005  0.038  0.141  0.023  0.000  0.024  0.007  0.059  0.323


 k-point   14 :   -0.18750000 0.18750000 0.06250000     weight = 0.02343750

band   1 # energy   -0.78064876 # occ.  2.00000000

ion      s     py     pz     px    dxy    dyz    dz2    dxz    dx2    tot
  1  0.441  0.032  0.000  0.072  0.123  0.022  0.010  0.015  0.013  0.729

band   2 # energy    1.17676641 # occ.  2.00000000

ion      s     py     pz     px    dxy    dyz    dz2    dxz    dx2    tot
  1  0.015  0.005  0.032  0.006  0.001  0.641  0.000  0.189  0.002  0.891

band   3 # energy    2.05691458 # occ.  2.00000000

ion      s     py     pz     px    dxy    dyz    dz2    dxz    dx2    tot
  1  0.001  0.013  0.000  0.003  0.331  0.005  0.423  0.002  0.134  0.912

band   4 # energy    2.92048547 # occ.  2.00000000

ion      s     py     pz     px    dxy    dyz    dz2    dxz    dx2    tot
  1  0.004  0.001  0.002  0.005  0.035  0.118  0.052  0.357  0.366  0.940

band   5 # energy    3.51539075 # occ.  2.00000000

ion      s     py     pz     px    dxy    dyz    dz2    dxz    dx2    tot
  1  0.008  0.001  0.002  0.009  0.013  0.114  0.028  0.350  0.418  0.943

band   6 # energy    5.40279967 # occ.  2.00000000

ion      s     py     pz     px    dxy    dyz    dz2    dxz    dx2    tot
  1  0.051  0.014  0.000  0.019  0.434  0.001  0.435  0.000  0.000  0.954

band   7 # energy   19.09910258 # occ.  0.00000000

ion      s     py     pz     px    dxy    dyz    dz2    dxz    dx2    tot
  1  0.170  0.133  0.053  0.095  0.083  0.031  0.036  0.031  0.001  0.633

band   8 # energy   22.19914367 # occ.  0.00000000

ion      s     py     pz     px    dxy    dyz    dz2    dxz    dx2    tot
  1  0.011  0.019  0.303  0.008  0.011  0.165  0.016  0.159  0.000  0.693

band   9 # energy   25.61079776 # occ.  0.00000000

ion      s     py     pz     px    dxy    dyz    dz2    dxz    dx2    tot
  1  0.026  0.043  0.019  0.107  0.002  0.000  0.038  0.002  0.051  0.289


 k-point   15 :   -0.06250000 0.18750000 0.06250000     weight = 0.02343750

band   1 # energy   -2.15842194 # occ.  2.00000000

ion      s     py     pz     px    dxy    dyz    dz2    dxz    dx2    tot
  1  0.589  0.017  0.002  0.052  0.022  0.003  0.004  0.004  0.004  0.695

band   2 # energy    1.36156596 # occ.  2.00000000

ion      s     py     pz     px    dxy    dyz    dz2    dxz    dx2    tot
  1  0.003  0.002  0.012  0.001  0.009  0.733  0.000  0.155  0.000  0.914

band   3 # energy    2.39823006 # occ.  2.00000000

ion      s     py     pz     px    dxy    dyz    dz2    dxz    dx2    tot
  1  0.001  0.008  0.000  0.003  0.638  0.023  0.201  0.009  0.052  0.936

band   4 # energy    2.54760922 # occ.  2.00000000

ion      s     py     pz     px    dxy    dyz    dz2    dxz    dx2    tot
  1  0.000  0.000  0.004  0.000  0.033  0.142  0.009  0.703  0.053  0.945

band   5 # energy    3.36735631 # occ.  2.00000000

ion      s     py     pz     px    dxy    dyz    dz2    dxz    dx2    tot
  1  0.007  0.001  0.000  0.005  0.063  0.019  0.012  0.051  0.790  0.947

band   6 # energy    4.24294413 # occ.  2.00000000

ion      s     py     pz     px    dxy    dyz    dz2    dxz    dx2    tot
  1  0.005  0.002  0.000  0.002  0.168  0.000  0.736  0.006  0.049  0.967

band   7 # energy   22.18736790 # occ.  0.00000000

ion      s     py     pz     px    dxy    dyz    dz2    dxz    dx2    tot
  1  0.083  0.101  0.045  0.069  0.080  0.031  0.017  0.033  0.005  0.464

band   8 # energy   24.07941071 # occ.  0.00000000

ion      s     py     pz     px    dxy    dyz    dz2    dxz    dx2    tot
  1  0.004  0.005  0.077  0.003  0.001  0.148  0.007  0.088  0.002  0.334

band   9 # energy   26.68065175 # occ.  0.00000000

ion      s     py     pz     px    dxy    dyz    dz2    dxz    dx2    tot
  1  0.001  0.039  0.228  0.004  0.035  0.000  0.005  0.061  0.001  0.375


 k-point   16 :    0.31250000 0.31250000 0.06250000     weight = 0.01171875

band   1 # energy   -0.72118911 # occ.  2.00000000

ion      s     py     pz     px    dxy    dyz    dz2    dxz    dx2    tot
  1  0.346  0.001  0.091  0.001  0.003  0.004  0.287  0.004  0.000  0.738

band   2 # energy    0.38212368 # occ.  2.00000000

ion      s     py     pz     px    dxy    dyz    dz2    dxz    dx2    tot
  1  0.001  0.002  0.000  0.002  0.889  0.003  0.002  0.003  0.000  0.901

band   3 # energy    2.70935726 # occ.  2.00000000

ion      s     py     pz     px    dxy    dyz    dz2    dxz    dx2    tot
  1  0.108  0.001  0.066  0.001  0.003  0.101  0.493  0.101  0.000  0.875

band   4 # energy    3.68419271 # occ.  2.00000000

ion      s     py     pz     px    dxy    dyz    dz2    dxz    dx2    tot
  1  0.000  0.008  0.000  0.008  0.000  0.401  0.000  0.401  0.131  0.949

band   5 # energy    4.13726097 # occ.  2.00000000

ion      s     py     pz     px    dxy    dyz    dz2    dxz    dx2    tot
  1  0.044  0.009  0.031  0.009  0.005  0.357  0.114  0.357  0.000  0.926

band   6 # energy    4.74624855 # occ.  2.00000000

ion      s     py     pz     px    dxy    dyz    dz2    dxz    dx2    tot
  1  0.000  0.001  0.000  0.001  0.000  0.066  0.000  0.066  0.844  0.977

band   7 # energy   21.32062007 # occ.  0.00000000

ion      s     py     pz     px    dxy    dyz    dz2    dxz    dx2    tot
  1  0.077  0.178  0.046  0.178  0.022  0.068  0.006  0.068  0.000  0.643

band   8 # energy   22.58693501 # occ.  0.00000000
