<?xml version="1.0" encoding="ISO-8859-1"?>
<modeling>
 <generator>
  <i name="program"" type=""stringvasp</i>
  <i name="version"" type=""string4.6.26 </i>
  <i name="subversion"" type=""string15Dec04 complex  serial</i>
  <i name="platform"" type=""stringLinuxPgi</i>
  <i name="date"" type=""string2009 11 29</i>
  <i name="time"" type=""string22:37:27</i>
 </generator>
 <incar>
  <i type=""string"" nameSYSTEM"" Au, FCC</i>
  <i type=""int"" nameISTART""     0</i>
  <i type=""string"" namePREC""normal ! set fft mesh, cutoffs</i>
  <i type=""string"" nameALGO"" Fast   ! use fast algorithm for electro</i>
  <i type=""int"" nameISPIN""     1</i>
  <i name="EDIFF""      0.00010000</i>
  <i name="ENCUT""    350.00000000</i>
  <i type=""int"" nameISMEAR""     0</i>
  <i name="SIGMA""      0.10000000</i>
  <i type=""int"" nameNWRITE""     1</i>
  <i type=""logical"" nameLWAVE"" F  </i>
  <i type=""logical"" nameLCHARG"" T  </i>
  <i type=""logical"" nameLVTOT"" F  </i>
  <i type=""logical"" nameLORBIT"" F  </i>
 </incar>
 <kpoints>
  <generation param="Monkhorst-Pack">
   <v type=""int"" namedivisions""       8       8       8</v>
   <v name="usershift""      0.00000000      0.00000000      0.00000000</v>
   <v name="genvec1""      0.12500000      0.00000000      0.00000000</v>
   <v name="genvec2""      0.00000000      0.12500000      0.00000000</v>
   <v name="genvec3""      0.00000000      0.00000000      0.12500000</v>
   <v name="shift""      0.50000000      0.50000000      0.50000000</v>
  </generation>
  <varray name="kpointlist"">
   <v>       0.06250000      0.06250000      0.06250000</v>
   <v>       0.18750000      0.06250000      0.06250000</v>
   <v>       0.31250000      0.06250000      0.06250000</v>
   <v>       0.43750000      0.06250000      0.06250000</v>
   <v>      -0.43750000      0.06250000      0.06250000</v>
   <v>      -0.31250000      0.06250000      0.06250000</v>
   <v>      -0.18750000      0.06250000      0.06250000</v>
   <v>      -0.06250000      0.06250000      0.06250000</v>
   <v>       0.18750000      0.18750000      0.06250000</v>
   <v>       0.31250000      0.18750000      0.06250000</v>
   <v>       0.43750000      0.18750000      0.06250000</v>
   <v>      -0.43750000      0.18750000      0.06250000</v>
   <v>      -0.31250000      0.18750000      0.06250000</v>
   <v>      -0.18750000      0.18750000      0.06250000</v>
   <v>      -0.06250000      0.18750000      0.06250000</v>
   <v>       0.31250000      0.31250000      0.06250000</v>
   <v>       0.43750000      0.31250000      0.06250000</v>
   <v>      -0.43750000      0.31250000      0.06250000</v>
   <v>      -0.31250000      0.31250000      0.06250000</v>
   <v>      -0.18750000      0.31250000      0.06250000</v>
   <v>      -0.06250000      0.31250000      0.06250000</v>
   <v>       0.43750000      0.43750000      0.06250000</v>
   <v>      -0.43750000      0.43750000      0.06250000</v>
   <v>      -0.31250000      0.43750000      0.06250000</v>
   <v>      -0.18750000      0.43750000      0.06250000</v>
   <v>      -0.06250000      0.43750000      0.06250000</v>
   <v>      -0.43750000     -0.43750000      0.06250000</v>
   <v>      -0.31250000     -0.43750000      0.06250000</v>
   <v>      -0.18750000     -0.43750000      0.06250000</v>
   <v>      -0.31250000     -0.31250000      0.06250000</v>
   <v>      -0.18750000     -0.31250000      0.06250000</v>
   <v>      -0.18750000     -0.18750000      0.06250000</v>
   <v>       0.18750000      0.18750000      0.18750000</v>
   <v>       0.31250000      0.18750000      0.18750000</v>
   <v>       0.43750000      0.18750000      0.18750000</v>
   <v>      -0.43750000      0.18750000      0.18750000</v>
   <v>      -0.31250000      0.18750000      0.18750000</v>
   <v>      -0.18750000      0.18750000      0.18750000</v>
   <v>       0.31250000      0.31250000      0.18750000</v>
   <v>       0.43750000      0.31250000      0.18750000</v>
   <v>      -0.43750000      0.31250000      0.18750000</v>
   <v>      -0.31250000      0.31250000      0.18750000</v>
   <v>      -0.18750000      0.31250000      0.18750000</v>
   <v>       0.43750000      0.43750000      0.18750000</v>
   <v>      -0.43750000      0.43750000      0.18750000</v>
   <v>      -0.31250000      0.43750000      0.18750000</v>
   <v>      -0.18750000      0.43750000      0.18750000</v>
   <v>      -0.43750000     -0.43750000      0.18750000</v>
   <v>      -0.31250000     -0.43750000      0.18750000</v>
   <v>      -0.31250000     -0.31250000      0.18750000</v>
   <v>       0.31250000      0.31250000      0.31250000</v>
   <v>       0.43750000      0.31250000      0.31250000</v>
   <v>      -0.43750000      0.31250000      0.31250000</v>
   <v>      -0.31250000      0.31250000      0.31250000</v>
   <v>       0.43750000      0.43750000      0.31250000</v>
   <v>      -0.43750000      0.43750000      0.31250000</v>
   <v>      -0.31250000      0.43750000      0.31250000</v>
   <v>      -0.43750000     -0.43750000      0.31250000</v>
   <v>       0.43750000      0.43750000      0.43750000</v>
   <v>      -0.43750000      0.43750000      0.43750000</v>
  </varray>
  <varray name="weights"">
   <v>       0.00390625</v>
   <v>       0.01171875</v>
   <v>       0.01171875</v>
   <v>       0.01171875</v>
   <v>       0.01171875</v>
   <v>       0.01171875</v>
   <v>       0.01171875</v>
   <v>       0.01171875</v>
   <v>       0.01171875</v>
   <v>       0.02343750</v>
   <v>       0.02343750</v>
   <v>       0.02343750</v>
   <v>       0.02343750</v>
   <v>       0.02343750</v>
   <v>       0.02343750</v>
   <v>       0.01171875</v>
   <v>       0.02343750</v>
   <v>       0.02343750</v>
   <v>       0.02343750</v>
   <v>       0.02343750</v>
   <v>       0.02343750</v>
   <v>       0.01171875</v>
   <v>       0.02343750</v>
   <v>       0.02343750</v>
   <v>       0.02343750</v>
   <v>       0.02343750</v>
   <v>       0.01171875</v>
   <v>       0.02343750</v>
   <v>       0.02343750</v>
   <v>       0.01171875</v>
   <v>       0.02343750</v>
   <v>       0.01171875</v>
   <v>       0.00390625</v>
   <v>       0.01171875</v>
   <v>       0.01171875</v>
   <v>       0.01171875</v>
   <v>       0.01171875</v>
   <v>       0.01171875</v>
   <v>       0.01171875</v>
   <v>       0.02343750</v>
   <v>       0.02343750</v>
   <v>       0.02343750</v>
   <v>       0.02343750</v>
   <v>       0.01171875</v>
   <v>       0.02343750</v>
   <v>       0.02343750</v>
   <v>       0.02343750</v>
   <v>       0.01171875</v>
   <v>       0.02343750</v>
   <v>       0.01171875</v>
   <v>       0.00390625</v>
   <v>       0.01171875</v>
   <v>       0.01171875</v>
   <v>       0.01171875</v>
   <v>       0.01171875</v>
   <v>       0.02343750</v>
   <v>       0.02343750</v>
   <v>       0.01171875</v>
   <v>       0.00390625</v>
   <v>       0.01171875</v>
  </varray>
 </kpoints>
 <parameters>
  <separator name="general"">
   <i type=""string"" nameSYSTEM""Au, FCC</i>
   <i type=""logical"" nameLCOMPAT"" F  </i>
  </separator>
  <separator name="electronic"">
   <i type=""string"" namePREC""normal</i>
   <i name="ENMAX""    350.00000000</i>
   <i name="ENAUG""    356.67000000</i>
   <i name="EDIFF""      0.00010000</i>
   <i type=""int"" nameIALGO""    68</i>
   <i type=""int"" nameIWAVPR""     0</i>
   <i type=""int"" nameNBANDS""     9</i>
   <i name="NELECT""     11.00000000</i>
   <separator name="electronic smearing"">
    <i type=""int"" nameISMEAR""     0</i>
    <i name="SIGMA""      0.10000000</i>
   </separator>
   <separator name="electronic projectors"">
    <i type=""logical"" nameLREAL"" F  </i>
    <v name="ROPT""      0.00000000</v>
    <i type=""int"" nameLMAXPAW""  -100</i>
    <i type=""int"" nameLMAXMIX""     2</i>
   </separator>
   <separator name="electronic startup"">
    <i type=""int"" nameISTART""     0</i>
    <i type=""int"" nameICHARG""     2</i>
    <i type=""int"" nameINIWAV""     1</i>
   </separator>
   <separator name="electronic spin"">
    <i type=""int"" nameISPIN""     1</i>
    <i type=""logical"" nameLNONCOLLINEAR"" F  </i>
    <v name="MAGMOM""      1.00000000</v>
    <i name="NUPDOWN""     -1.00000000</i>
    <i type=""logical"" nameLSORBIT"" F  </i>
    <v name="SAXIS""      0.00000000      0.00000000      1.00000000</v>
    <i type=""logical"" nameLSPIRAL"" F  </i>
    <v name="QSPIRAL""      0.00000000      0.00000000      0.00000000</v>
    <i type=""logical"" nameLZEROZ"" F  </i>
   </separator>
   <separator name="electronic exchange-correlation"">
    <i type=""string"" nameGGA""--</i>
    <i type=""int"" nameVOSKOWN""     0</i>
    <i type=""logical"" nameLASPH"" F  </i>
    <i type=""logical"" nameLMETAGGA"" F  </i>
    <i type=""string"" nameGGA2""--</i>
   </separator>
   <separator name="electronic convergence"">
    <i type=""int"" nameNELM""    60</i>
    <i type=""int"" nameNELMDL""    -5</i>
    <i type=""int"" nameNELMIN""     2</i>
    <i name="ENINI""    350.00000000</i>
    <separator name="electronic convergence detail"">
     <i type=""logical"" nameLDIAG"" T  </i>
     <i name="WEIMIN""      0.00000000</i>
     <i name="EBREAK""      0.00000278</i>
     <i name="DEPER""      0.30000000</i>
     <i type=""int"" nameNRMM""     4</i>
     <i name="TIME""      0.10000000</i>
    </separator>
   </separator>
   <separator name="electronic mixer"">
    <i name="AMIX""      0.40000000</i>
    <i name="BMIX""      1.00000000</i>
    <i name="AMIN""      0.10000000</i>
    <i name="AMIX_MAG""      1.60000000</i>
    <i name="BMIX_MAG""      1.00000000</i>
    <separator name="electronic mixer details"">
     <i type=""int"" nameIMIX""     4</i>
     <i type=""int"" nameMAXMIX""   -45</i>
     <i name="WC""    100.00000000</i>
     <i type=""int"" nameINIMIX""     1</i>
     <i type=""int"" nameMIXPRE""     1</i>
     <i type=""int"" nameMREMOVE""     5</i>
    </separator>
   </separator>
   <separator name="electronic dipolcorrection"">
    <i type=""int"" nameIDIPOL""     0</i>
    <i type=""logical"" nameLDIPOL"" F  </i>
    <v name="DIPOL""   -100.00000000</v>
    <i name="EFIELD""      0.00000000</i>
   </separator>
  </separator>
  <separator name="grids"">
   <i type=""int"" nameNGX""    14</i>
   <i type=""int"" nameNGY""    14</i>
   <i type=""int"" nameNGZ""    14</i>
   <i type=""int"" nameNGXF""    28</i>
   <i type=""int"" nameNGYF""    28</i>
   <i type=""int"" nameNGZF""    28</i>
   <i type=""logical"" nameADDGRID"" F  </i>
  </separator>
  <separator name="ionic"">
   <i type=""int"" nameNSW""     0</i>
   <i type=""int"" nameIBRION""    -1</i>
   <i type=""int"" nameISIF""     2</i>
   <i name="PSTRESS""      0.00000000</i>
   <i name="EDIFFG""      0.00100000</i>
   <i type=""int"" nameNFREE""     0</i>
   <i name="POTIM""      0.50000000</i>
   <i name="SMASS""     -3.00000000</i>
  </separator>
  <separator name="ionic md"">
   <i name="TEBEG""      0.00010000</i>
   <i name="TEEND""      0.00010000</i>
   <i type=""int"" nameNBLOCK""     1</i>
   <i type=""int"" nameKBLOCK""     1</i>
   <i type=""int"" nameNPACO""   256</i>
   <i name="APACO""     16.00000000</i>
  </separator>
  <separator name="symmetry"">
   <i type=""int"" nameISYM""     2</i>
   <i name="SYMPREC""      0.00001000</i>
  </separator>
  <separator name="dos"">
   <i type=""logical"" nameLORBIT"" F  </i>
   <v name="RWIGS""     -1.00000000</v>
   <i type=""int"" nameNEDOS""   301</i>
   <i name="EMIN""     10.00000000</i>
   <i name="EMAX""    -10.00000000</i>
  </separator>
  <separator name="writing"">
   <i type=""int"" nameNWRITE""     1</i>
   <i type=""logical"" nameLWAVE"" F  </i>
   <i type=""logical"" nameLCHARG"" T  </i>
   <i type=""logical"" nameLPARD"" F  </i>
   <i type=""logical"" nameLVTOT"" F  </i>
   <i type=""logical"" nameLELF"" F  </i>
   <i type=""logical"" nameLOPTICS"" F  </i>
   <i name="STM""      0.00000000</i>
  </separator>
  <separator name="performance"">
   <i type=""int"" nameNPAR""     1</i>
   <i type=""int"" nameNSIM""     4</i>
   <i type=""int"" nameNBLK""    32</i>
   <i type=""logical"" nameLPLANE"" T  </i>
   <i type=""logical"" nameLCRITICAL_MEM"" F  </i>
   <i type=""logical"" nameLSCALAPACK"" F  </i>
   <i type=""logical"" nameLSCALU"" F  </i>
   <i type=""logical"" nameLASYNC"" F  </i>
  </separator>
  <separator name="miscellaneous"">
   <i type=""int"" nameIDIOT""     3</i>
   <i type=""logical"" nameLMUSIC"" F  </i>
   <v name="POMASS""    196.96600000</v>
   <i type=""logical"" nameLCORR"" T  </i>
  </separator>
  <i type=""logical"" nameLREAL_COMPAT"" F  </i>
  <i type=""logical"" nameGGA_COMPAT"" T  </i>
  <i type=""logical"" nameLBERRY"" F  </i>
  <i type=""int"" nameICORELEVEL""     0</i>
  <i type=""logical"" nameLDAU"" F  </i>
  <i type=""int"" nameI_CONSTRAINED_M""     0</i>
 </parameters>
 <atominfo>
  <atoms>       1</atoms>
  <types>       1</types>
  <array name="atoms"">
   <dimension dim="1">ion</dimension>
   <field type="string">element</field>
   <field type="int">atomtype</field>
   <set>
    <rc><c>Au</c><c>   1</c></rc>
   </set>
  </array>
  <array name="atomtypes"">
   <dimension dim="1">type</dimension>
   <field type="int">atomspertype</field>
   <field type="string">element</field>
   <field>mass</field>
   <field>valence</field>
   <field type="string">pseudopotential</field>
   <set>
    <rc><c>   1</c><c>Au</c><c>    196.96600000</c><c>     11.00000000</c><c> PAW_GGA Au 18Jul2000                   </c></rc>
   </set>
  </array>
 </atominfo>
 <structure name="initialpos"">
  <crystal>
   <varray name="basis"">
    <v>       0.00000000      1.96195000      1.96195000</v>
    <v>       1.96195000      0.00000000      1.96195000</v>
    <v>       1.96195000      1.96195000      0.00000000</v>
   </varray>
   <i name="volume""     15.10406345</i>
   <varray name="rec_basis"">
    <v>      -0.25484849      0.25484849      0.25484849</v>
    <v>       0.25484849     -0.25484849      0.25484849</v>
    <v>       0.25484849      0.25484849     -0.25484849</v>
   </varray>
  </crystal>
  <varray name="positions"">
   <v>       0.00000000      0.00000000      0.00000000</v>
  </varray>
 </structure>
 <calculation>
  <scstep>
   <time name="dav""    1.30    1.18</time>
   <time name="total""    1.35    1.23</time>
   <energy>
    <i name="alphaZ""    123.73329044</i>
    <i name="ewald""  -1017.93440247</i>
    <i name="hartreedc""   -108.64682985</i>
    <i name="XCdc""     15.65807697</i>
    <i name="pawpsdc""    747.65313744</i>
    <i name="pawaedc""   -724.56448596</i>
    <i name="eentropy""     -0.00143411</i>
    <i name="bandstr""     80.20175833</i>
    <i name="atom""    927.07761444</i>
    <i name="e_fr_energy""     43.17672523</i>
    <i name="e_wo_entrp""     43.17815934</i>
    <i name="e_0_energy""     43.17744229</i>
   </energy>
  </scstep>
  <scstep>
   <time name="dav""    1.02    0.98</time>
   <time name="total""    1.02    0.99</time>
   <energy>
    <i name="e_fr_energy""     -2.58719711</i>
    <i name="e_wo_entrp""     -2.58573768</i>
    <i name="e_0_energy""     -2.58646739</i>
   </energy>
  </scstep>
  <scstep>
   <time name="dav""    1.22    1.12</time>
   <time name="total""    1.22    1.13</time>
   <energy>
    <i name="e_fr_energy""     -3.10568446</i>
    <i name="e_wo_entrp""     -3.10443151</i>
    <i name="e_0_energy""     -3.10505798</i>
   </energy>
  </scstep>
  <scstep>
   <time name="dav""    1.19    1.09</time>
   <time name="total""    1.19    1.10</time>
   <energy>
    <i name="e_fr_energy""     -3.10704557</i>
    <i name="e_wo_entrp""     -3.10579275</i>
    <i name="e_0_energy""     -3.10641916</i>
   </energy>
  </scstep>
  <scstep>
   <time name="dav""    1.25    1.12</time>
   <time name="total""    1.31    1.18</time>
   <energy>
    <i name="e_fr_energy""     -3.10705572</i>
    <i name="e_wo_entrp""     -3.10580290</i>
    <i name="e_0_energy""     -3.10642931</i>
   </energy>
  </scstep>
  <scstep>
   <time name="diag""    0.18    0.18</time>
   <time name="diis""    0.79    0.78</time>
   <time name="orth""    0.02    0.02</time>
   <time name="total""    1.11    1.09</time>
   <energy>
    <i name="e_fr_energy""     -2.89381032</i>
    <i name="e_wo_entrp""     -2.89281233</i>
    <i name="e_0_energy""     -2.89331132</i>
   </energy>
  </scstep>
  <scstep>
   <time name="diag""    0.19    0.18</time>
   <time name="diis""    0.83    0.81</time>
   <time name="orth""    0.02    0.02</time>
   <time name="total""    1.16    1.12</time>
   <energy>
    <i name="e_fr_energy""     -2.86419504</i>
    <i name="e_wo_entrp""     -2.86326207</i>
    <i name="e_0_energy""     -2.86372855</i>
   </energy>
  </scstep>
  <scstep>
   <time name="diag""    0.19    0.18</time>
   <time name="diis""    0.85    0.83</time>
   <time name="orth""    0.02    0.02</time>
   <time name="total""    1.17    1.14</time>
   <energy>
    <i name="e_fr_energy""     -2.85945104</i>
    <i name="e_wo_entrp""     -2.85852224</i>
    <i name="e_0_energy""     -2.85898664</i>
   </energy>
  </scstep>
  <scstep>
   <time name="diag""    0.19    0.18</time>
   <time name="diis""    0.55    0.54</time>
   <time name="orth""    0.02    0.02</time>
   <time name="total""    0.82    0.80</time>
   <energy>
    <i name="alphaZ""    123.73329044</i>
    <i name="ewald""  -1017.93440247</i>
    <i name="hartreedc""    -98.12453417</i>
    <i name="XCdc""     15.17666976</i>
    <i name="pawpsdc""    779.39288052</i>
    <i name="pawaedc""   -759.81888111</i>
    <i name="eentropy""     -0.00092851</i>
    <i name="bandstr""     27.63883018</i>
    <i name="atom""    927.07761444</i>
    <i name="e_fr_energy""     -2.85946092</i>
    <i name="e_wo_entrp""     -2.85853241</i>
    <i name="e_0_energy""     -2.85899667</i>
   </energy>
  </scstep>
  <structure>
   <crystal>
    <varray name="basis"">
     <v>       0.00000000      1.96195000      1.96195000</v>
     <v>       1.96195000      0.00000000      1.96195000</v>
     <v>       1.96195000      1.96195000      0.00000000</v>
    </varray>
    <i name="volume""     15.10406345</i>
    <varray name="rec_basis"">
     <v>      -0.25484849      0.25484849      0.25484849</v>
     <v>       0.25484849     -0.25484849      0.25484849</v>
     <v>       0.25484849      0.25484849     -0.25484849</v>
    </varray>
   </crystal>
   <varray name="positions"">
    <v>       0.00000000      0.00000000      0.00000000</v>
   </varray>
  </structure>
  <varray name="forces"">
   <v>       0.00000000      0.00000000      0.00000000</v>
  </varray>
  <varray name="stress"">
   <v>     430.21971928      0.00000000      0.00000000</v>
   <v>       0.00000000    430.21971928      0.00000000</v>
   <v>       0.00000000      0.00000000    430.21971928</v>
  </varray>
  <energy>
   <i name="e_fr_energy""     -2.85946092</i>
   <i name="e_wo_entrp""     -2.85899667</i>
   <i name="e_0_energy""     -0.00092851</i>
  </energy>
  <eigenvalues>
   <array>
    <dimension dim="1">band</dimension>
    <dimension dim="2">kpoint</dimension>
    <dimension dim="3">spin</dimension>
    <field>eigene</field>
    <field>occ</field>
    <set>
     <set comment="spin 1">
      <set comment="kpoint 1">
       <r>  -3.6333  1.0000</r>
       <r>   1.8978  1.0000</r>
       <r>   2.0113  1.0000</r>
       <r>   2.0113  1.0000</r>
       <r>   3.8041  1.0000</r>
       <r>   3.8041  1.0000</r>
       <r>  22.9481  0.0000</r>
       <r>  26.3302  0.0000</r>
       <r>  27.5443  0.0000</r>
      </set>
      <set comment="kpoint 2">
       <r>  -2.8617  1.0000</r>
       <r>   1.6302  1.0000</r>
       <r>   2.2589  1.0000</r>
       <r>   2.2831  1.0000</r>
       <r>   3.5407  1.0000</r>
       <r>   3.9411  1.0000</r>
       <r>  23.3844  0.0000</r>
       <r>  23.9605  0.0000</r>
       <r>  27.1884  0.0000</r>
      </set>
      <set comment="kpoint 3">
       <r>  -1.4844  1.0000</r>
       <r>   1.7443  1.0000</r>
       <r>   2.2790  1.0000</r>
       <r>   2.3488  1.0000</r>
       <r>   3.8375  1.0000</r>
       <r>   4.5652  1.0000</r>
       <r>  18.8102  0.0000</r>
       <r>  23.8092  0.0000</r>
       <r>  27.1272  0.0000</r>
      </set>
      <set comment="kpoint 4">
       <r>  -1.0073  1.0000</r>
       <r>   1.9428  1.0000</r>
       <r>   2.0755  1.0000</r>
       <r>   3.6070  1.0000</r>
       <r>   4.7904  1.0000</r>
       <r>   5.7344  1.0000</r>
       <r>  13.7191  0.0000</r>
       <r>  22.5928  0.0000</r>
       <r>  25.6308  0.0000</r>
      </set>
      <set comment="kpoint 5">
       <r>  -1.0163  1.0000</r>
       <r>   1.8175  1.0000</r>
       <r>   2.0019  1.0000</r>
       <r>   4.4082  1.0000</r>
       <r>   5.3247  1.0000</r>
       <r>   6.7574  1.0000</r>
       <r>  11.3177  0.0000</r>
       <r>  22.2152  0.0000</r>
       <r>  25.6809  0.0000</r>
      </set>
      <set comment="kpoint 6">
       <r>  -1.0559  1.0000</r>
       <r>   2.0037  1.0000</r>
       <r>   2.1999  1.0000</r>
       <r>   2.7945  1.0000</r>
       <r>   4.9044  1.0000</r>
       <r>   4.9484  1.0000</r>
       <r>  15.3464  0.0000</r>
       <r>  23.0016  0.0000</r>
       <r>  26.3870  0.0000</r>
      </set>
      <set comment="kpoint 7">
       <r>  -1.9181  1.0000</r>
       <r>   1.5344  1.0000</r>
       <r>   2.3379  1.0000</r>
       <r>   2.4054  1.0000</r>
       <r>   3.7141  1.0000</r>
       <r>   4.1961  1.0000</r>
       <r>  20.5031  0.0000</r>
       <r>  24.2054  0.0000</r>
       <r>  27.4608  0.0000</r>
      </set>
      <set comment="kpoint 8">
       <r>  -3.2353  1.0000</r>
       <r>   1.6974  1.0000</r>
       <r>   2.1858  1.0000</r>
       <r>   2.1932  1.0000</r>
       <r>   3.5716  1.0000</r>
       <r>   3.9172  1.0000</r>
       <r>  23.4186  0.0000</r>
       <r>  25.1020  0.0000</r>
       <r>  27.2712  0.0000</r>
      </set>
      <set comment="kpoint 9">
       <r>  -2.4842  1.0000</r>
       <r>   1.3163  1.0000</r>
       <r>   2.5169  1.0000</r>
       <r>   2.5495  1.0000</r>
       <r>   3.2362  1.0000</r>
       <r>   4.1306  1.0000</r>
       <r>  23.8221  0.0000</r>
       <r>  24.4312  0.0000</r>
       <r>  26.3229  0.0000</r>
      </set>
      <set comment="kpoint 10">
       <r>  -1.2499  1.0000</r>
       <r>   0.9761  1.0000</r>
       <r>   2.2635  1.0000</r>
       <r>   2.9839  1.0000</r>
       <r>   3.6180  1.0000</r>
       <r>   4.7019  1.0000</r>
       <r>  20.8963  0.0000</r>
       <r>  23.5365  0.0000</r>
       <r>  25.7184  0.0000</r>
      </set>
      <set comment="kpoint 11">
       <r>  -0.4375  1.0000</r>
       <r>   1.5769  1.0000</r>
       <r>   1.8224  1.0000</r>
       <r>   2.8000  1.0000</r>
       <r>   4.8646  1.0000</r>
       <r>   6.2017  1.0000</r>
       <r>  15.6405  0.0000</r>
       <r>  22.7525  0.0000</r>
       <r>  23.5974  0.0000</r>
      </set>
      <set comment="kpoint 12">
       <r>  -0.4026  1.0000</r>
       <r>   1.3993  1.0000</r>
       <r>   2.5482  1.0000</r>
       <r>   2.9593  1.0000</r>
       <r>   5.2369  1.0000</r>
       <r>   8.8725  0.0000</r>
       <r>  11.2714  0.0000</r>
       <r>  22.0617  0.0000</r>
       <r>  22.9933  0.0000</r>
      </set>
      <set comment="kpoint 13">
       <r>  -0.3338  1.0000</r>
       <r>   1.5588  1.0000</r>
       <r>   2.3272  1.0000</r>
       <r>   2.6836  1.0000</r>
       <r>   4.6434  1.0000</r>
       <r>   7.2119  0.9995</r>
       <r>  14.1071  0.0000</r>
       <r>  21.5533  0.0000</r>
       <r>  23.8046  0.0000</r>
      </set>
      <set comment="kpoint 14">
       <r>  -0.7806  1.0000</r>
       <r>   1.1768  1.0000</r>
       <r>   2.0569  1.0000</r>
       <r>   2.9205  1.0000</r>
       <r>   3.5154  1.0000</r>
       <r>   5.4028  1.0000</r>
       <r>  19.0991  0.0000</r>
       <r>  22.1991  0.0000</r>
       <r>  25.6108  0.0000</r>
      </set>
      <set comment="kpoint 15">
       <r>  -2.1584  1.0000</r>
       <r>   1.3616  1.0000</r>
       <r>   2.3982  1.0000</r>
       <r>   2.5476  1.0000</r>
       <r>   3.3674  1.0000</r>
       <r>   4.2429  1.0000</r>
       <r>  22.1874  0.0000</r>
       <r>  24.0794  0.0000</r>
       <r>  26.6807  0.0000</r>
      </set>
      <set comment="kpoint 16">
       <r>  -0.7212  1.0000</r>
       <r>   0.3821  1.0000</r>
       <r>   2.7094  1.0000</r>
       <r>   3.6842  1.0000</r>
       <r>   4.1373  1.0000</r>
       <r>   4.7462  1.0000</r>
       <r>  21.3206  0.0000</r>
       <r>  22.5869  0.0000</r>
       <r>  23.6698  0.0000</r>
      </set>
      <set comment="kpoint 17">
       <r>  -0.2669  1.0000</r>
       <r>   0.2122  1.0000</r>
       <r>   2.6733  1.0000</r>
       <r>   4.1476  1.0000</r>
       <r>   4.9531  1.0000</r>
       <r>   6.3428  1.0000</r>
       <r>  17.6877  0.0000</r>
       <r>  20.2800  0.0000</r>
       <r>  21.2392  0.0000</r>
      </set>
      <set comment="kpoint 18">
       <r>  -0.0533  1.0000</r>
       <r>   0.7419  1.0000</r>
       <r>   2.3859  1.0000</r>
       <r>   3.7347  1.0000</r>
       <r>   5.3346  1.0000</r>
       <r>   9.7931  0.0000</r>
       <r>  12.9623  0.0000</r>
       <r>  18.6275  0.0000</r>
       <r>  20.9223  0.0000</r>
      </set>
      <set comment="kpoint 19">
       <r>   0.4044  1.0000</r>
       <r>   1.1718  1.0000</r>
       <r>   1.8590  1.0000</r>
       <r>   3.4255  1.0000</r>
       <r>   4.7108  1.0000</r>
       <r>   9.5685  0.0000</r>
       <r>  14.1530  0.0000</r>
       <r>  16.8864  0.0000</r>
       <r>  22.7874  0.0000</r>
      </set>
      <set comment="kpoint 20">
       <r>   0.2551  1.0000</r>
       <r>   1.3426  1.0000</r>
       <r>   1.5658  1.0000</r>
       <r>   3.1364  1.0000</r>
       <r>   4.0604  1.0000</r>
       <r>   7.2737  0.9924</r>
       <r>  16.2015  0.0000</r>
       <r>  19.3265  0.0000</r>
       <r>  24.2369  0.0000</r>
      </set>
      <set comment="kpoint 21">
       <r>  -0.9471  1.0000</r>
       <r>   1.7920  1.0000</r>
       <r>   2.0627  1.0000</r>
       <r>   2.4769  1.0000</r>
       <r>   4.2015  1.0000</r>
       <r>   5.2289  1.0000</r>
       <r>  17.2035  0.0000</r>
       <r>  23.3856  0.0000</r>
       <r>  25.4034  0.0000</r>
      </set>
      <set comment="kpoint 22">
       <r>  -0.6905  1.0000</r>
       <r>  -0.3171  1.0000</r>
       <r>   4.6229  1.0000</r>
       <r>   4.8779  1.0000</r>
       <r>   5.3975  1.0000</r>
       <r>   6.7168  1.0000</r>
       <r>  16.8007  0.0000</r>
       <r>  18.7997  0.0000</r>
       <r>  19.2075  0.0000</r>
      </set>
      <set comment="kpoint 23">
       <r>  -0.5784  1.0000</r>
       <r>  -0.2149  1.0000</r>
       <r>   4.1073  1.0000</r>
       <r>   4.8273  1.0000</r>
       <r>   5.6169  1.0000</r>
       <r>   9.6463  0.0000</r>
       <r>  14.0366  0.0000</r>
       <r>  17.1826  0.0000</r>
       <r>  18.5680  0.0000</r>
      </set>
      <set comment="kpoint 24">
       <r>  -0.1010  1.0000</r>
       <r>   0.5859  1.0000</r>
       <r>   2.7267  1.0000</r>
       <r>   4.0464  1.0000</r>
       <r>   5.2783  1.0000</r>
       <r>  11.7055  0.0000</r>
       <r>  12.4013  0.0000</r>
       <r>  16.1838  0.0000</r>
       <r>  20.4683  0.0000</r>
      </set>
      <set comment="kpoint 25">
       <r>   0.0641  1.0000</r>
       <r>   1.1545  1.0000</r>
       <r>   2.3942  1.0000</r>
       <r>   3.0049  1.0000</r>
       <r>   5.0241  1.0000</r>
       <r>   9.8726  0.0000</r>
       <r>  11.7335  0.0000</r>
       <r>  19.6590  0.0000</r>
       <r>  22.8063  0.0000</r>
      </set>
      <set comment="kpoint 26">
       <r>  -0.7831  1.0000</r>
       <r>   1.7062  1.0000</r>
       <r>   2.2182  1.0000</r>
       <r>   3.4593  1.0000</r>
       <r>   5.1449  1.0000</r>
       <r>   7.0345  1.0000</r>
       <r>  12.3332  0.0000</r>
       <r>  22.5076  0.0000</r>
       <r>  24.3959  0.0000</r>
      </set>
      <set comment="kpoint 27">
       <r>  -0.8360  1.0000</r>
       <r>  -0.4716  1.0000</r>
       <r>   5.1448  1.0000</r>
       <r>   5.2135  1.0000</r>
       <r>   5.6441  1.0000</r>
       <r>   8.3409  0.0000</r>
       <r>  14.5339  0.0000</r>
       <r>  17.8236  0.0000</r>
       <r>  18.3784  0.0000</r>
      </set>
      <set comment="kpoint 28">
       <r>  -0.4300  1.0000</r>
       <r>  -0.0674  1.0000</r>
       <r>   3.4919  1.0000</r>
       <r>   4.6579  1.0000</r>
       <r>   5.3596  1.0000</r>
       <r>   7.9362  0.0000</r>
       <r>  15.8446  0.0000</r>
       <r>  18.4338  0.0000</r>
       <r>  19.3967  0.0000</r>
      </set>
      <set comment="kpoint 29">
       <r>  -0.1186  1.0000</r>
       <r>   1.0899  1.0000</r>
       <r>   2.0034  1.0000</r>
       <r>   3.2573  1.0000</r>
       <r>   5.2568  1.0000</r>
       <r>   7.7728  0.0000</r>
       <r>  14.1697  0.0000</r>
       <r>  21.2737  0.0000</r>
       <r>  21.8202  0.0000</r>
      </set>
      <set comment="kpoint 30">
       <r>  -0.5304  1.0000</r>
       <r>  -0.0222  1.0000</r>
       <r>   3.5794  1.0000</r>
       <r>   4.3401  1.0000</r>
       <r>   5.0791  1.0000</r>
       <r>   5.1995  1.0000</r>
       <r>  19.3320  0.0000</r>
       <r>  20.6912  0.0000</r>
       <r>  20.8759  0.0000</r>
      </set>
      <set comment="kpoint 31">
       <r>  -0.4665  1.0000</r>
       <r>   0.5743  1.0000</r>
       <r>   2.1642  1.0000</r>
       <r>   3.5324  1.0000</r>
       <r>   4.2999  1.0000</r>
       <r>   5.3171  1.0000</r>
       <r>  19.4017  0.0000</r>
       <r>  22.0379  0.0000</r>
       <r>  23.6741  0.0000</r>
      </set>
      <set comment="kpoint 32">
       <r>  -1.5195  1.0000</r>
       <r>   0.8500  1.0000</r>
       <r>   2.5867  1.0000</r>
       <r>   3.0600  1.0000</r>
       <r>   3.3895  1.0000</r>
       <r>   4.4184  1.0000</r>
       <r>  22.8329  0.0000</r>
       <r>  24.6064  0.0000</r>
       <r>  25.0418  0.0000</r>
      </set>
      <set comment="kpoint 33">
       <r>  -2.5314  1.0000</r>
       <r>   1.6545  1.0000</r>
       <r>   2.2867  1.0000</r>
       <r>   2.2867  1.0000</r>
       <r>   3.7895  1.0000</r>
       <r>   3.7895  1.0000</r>
       <r>  21.9943  0.0000</r>
       <r>  24.0727  0.0000</r>
       <r>  28.7764  0.0000</r>
      </set>
      <set comment="kpoint 34">
       <r>  -1.5538  1.0000</r>
       <r>   1.3385  1.0000</r>
       <r>   2.3113  1.0000</r>
       <r>   2.6585  1.0000</r>
       <r>   3.2954  1.0000</r>
       <r>   4.7121  1.0000</r>
       <r>  20.5888  0.0000</r>
       <r>  23.3392  0.0000</r>
       <r>  26.8199  0.0000</r>
      </set>
      <set comment="kpoint 35">
       <r>  -0.2412  1.0000</r>
       <r>   1.3315  1.0000</r>
       <r>   1.9281  1.0000</r>
       <r>   2.8608  1.0000</r>
       <r>   3.6045  1.0000</r>
       <r>   6.2699  1.0000</r>
       <r>  17.5394  0.0000</r>
       <r>  20.7756  0.0000</r>
       <r>  25.2244  0.0000</r>
      </set>
      <set comment="kpoint 36">
       <r>  -0.1723  1.0000</r>
       <r>   1.4067  1.0000</r>
       <r>   2.6388  1.0000</r>
       <r>   2.6730  1.0000</r>
       <r>   4.7403  1.0000</r>
       <r>   8.3624  0.0000</r>
       <r>  12.8244  0.0000</r>
       <r>  20.4770  0.0000</r>
       <r>  24.3079  0.0000</r>
      </set>
      <set comment="kpoint 37">
       <r>  -0.3139  1.0000</r>
       <r>   1.3402  1.0000</r>
       <r>   2.4654  1.0000</r>
       <r>   2.7793  1.0000</r>
       <r>   5.3840  1.0000</r>
       <r>   8.3062  0.0000</r>
       <r>  12.4113  0.0000</r>
       <r>  21.6317  0.0000</r>
       <r>  23.5589  0.0000</r>
      </set>
      <set comment="kpoint 38">
       <r>  -0.4798  1.0000</r>
       <r>   0.9794  1.0000</r>
       <r>   1.9997  1.0000</r>
       <r>   3.0486  1.0000</r>
       <r>   5.0823  1.0000</r>
       <r>   5.2802  1.0000</r>
       <r>  17.4533  0.0000</r>
       <r>  23.4659  0.0000</r>
       <r>  23.4910  0.0000</r>
      </set>
      <set comment="kpoint 39">
       <r>  -1.1439  1.0000</r>
       <r>   1.2849  1.0000</r>
       <r>   2.1586  1.0000</r>
       <r>   2.6582  1.0000</r>
       <r>   4.1947  1.0000</r>
       <r>   4.6584  1.0000</r>
       <r>  19.0230  0.0000</r>
       <r>  24.2110  0.0000</r>
       <r>  25.4689  0.0000</r>
      </set>
      <set comment="kpoint 40">
       <r>  -0.0662  1.0000</r>
       <r>   0.9521  1.0000</r>
       <r>   1.6825  1.0000</r>
       <r>   3.3751  1.0000</r>
       <r>   4.1191  1.0000</r>
       <r>   6.2793  1.0000</r>
       <r>  17.6292  0.0000</r>
       <r>  20.7605  0.0000</r>
       <r>  23.8071  0.0000</r>
      </set>
      <set comment="kpoint 41">
       <r>   0.6473  1.0000</r>
       <r>   1.0327  1.0000</r>
       <r>   1.3869  1.0000</r>
       <r>   3.5620  1.0000</r>
       <r>   4.6589  1.0000</r>
       <r>   8.5760  0.0000</r>
       <r>  15.0707  0.0000</r>
       <r>  17.9900  0.0000</r>
       <r>  22.0755  0.0000</r>
      </set>
      <set comment="kpoint 42">
       <r>   0.3709  1.0000</r>
       <r>   0.9018  1.0000</r>
       <r>   1.9817  1.0000</r>
       <r>   3.4421  1.0000</r>
       <r>   5.1793  1.0000</r>
       <r>  10.8371  0.0000</r>
       <r>  11.8505  0.0000</r>
       <r>  18.8079  0.0000</r>
       <r>  20.5640  0.0000</r>
      </set>
      <set comment="kpoint 43">
       <r>   0.1827  1.0000</r>
       <r>   0.6741  1.0000</r>
       <r>   1.7936  1.0000</r>
       <r>   3.9130  1.0000</r>
       <r>   4.7549  1.0000</r>
       <r>   7.5116  0.1747</r>
       <r>  16.1981  0.0000</r>
       <r>  19.2500  0.0000</r>
       <r>  21.5503  0.0000</r>
      </set>
      <set comment="kpoint 44">
       <r>  -0.2526  1.0000</r>
       <r>   0.5992  1.0000</r>
       <r>   2.3950  1.0000</r>
       <r>   3.5451  1.0000</r>
       <r>   5.3782  1.0000</r>
       <r>   6.8263  1.0000</r>
       <r>  15.8409  0.0000</r>
       <r>  21.1845  0.0000</r>
       <r>  21.7724  0.0000</r>
      </set>
      <set comment="kpoint 45">
       <r>   0.0340  1.0000</r>
       <r>   0.4043  1.0000</r>
       <r>   2.3797  1.0000</r>
       <r>   4.2488  1.0000</r>
       <r>   5.2635  1.0000</r>
       <r>   9.2183  0.0000</r>
       <r>  14.8732  0.0000</r>
       <r>  17.7494  0.0000</r>
       <r>  19.4482  0.0000</r>
      </set>
      <set comment="kpoint 46">
       <r>   0.3403  1.0000</r>
       <r>   0.9307  1.0000</r>
       <r>   1.8163  1.0000</r>
       <r>   3.7248  1.0000</r>
       <r>   5.6034  1.0000</r>
       <r>  12.1729  0.0000</r>
       <r>  13.5816  0.0000</r>
       <r>  15.4729  0.0000</r>
       <r>  18.2421  0.0000</r>
      </set>
      <set comment="kpoint 47">
       <r>   0.5556  1.0000</r>
       <r>   0.9212  1.0000</r>
       <r>   1.5523  1.0000</r>
       <r>   3.7638  1.0000</r>
       <r>   5.2205  1.0000</r>
       <r>  10.2970  0.0000</r>
       <r>  14.1600  0.0000</r>
       <r>  16.8085  0.0000</r>
       <r>  19.7027  0.0000</r>
      </set>
      <set comment="kpoint 48">
       <r>  -0.4383  1.0000</r>
       <r>   0.1024  1.0000</r>
       <r>   3.6078  1.0000</r>
       <r>   4.4906  1.0000</r>
       <r>   5.4192  1.0000</r>
       <r>  10.6152  0.0000</r>
       <r>  13.1665  0.0000</r>
       <r>  16.5118  0.0000</r>
       <r>  19.9210  0.0000</r>
      </set>
      <set comment="kpoint 49">
       <r>  -0.1232  1.0000</r>
       <r>   0.2733  1.0000</r>
       <r>   2.8910  1.0000</r>
       <r>   4.2533  1.0000</r>
       <r>   5.6065  1.0000</r>
       <r>  11.1556  0.0000</r>
       <r>  13.5348  0.0000</r>
       <r>  16.4066  0.0000</r>
       <r>  18.4104  0.0000</r>
      </set>
      <set comment="kpoint 50">
       <r>  -0.3322  1.0000</r>
       <r>   0.2716  1.0000</r>
       <r>   3.1001  1.0000</r>
       <r>   4.0752  1.0000</r>
       <r>   5.4816  1.0000</r>
       <r>   8.7175  0.0000</r>
       <r>  14.3686  0.0000</r>
       <r>  18.5188  0.0000</r>
       <r>  20.5558  0.0000</r>
      </set>
      <set comment="kpoint 51">
       <r>  -1.3233  1.0000</r>
       <r>   2.1811  1.0000</r>
       <r>   2.1811  1.0000</r>
       <r>   2.4183  1.0000</r>
       <r>   4.4288  1.0000</r>
       <r>   4.4288  1.0000</r>
       <r>  17.0106  0.0000</r>
       <r>  23.3423  0.0000</r>
       <r>  28.4511  0.0000</r>
      </set>
      <set comment="kpoint 52">
       <r>  -0.6742  1.0000</r>
       <r>   1.8385  1.0000</r>
       <r>   2.3783  1.0000</r>
       <r>   2.4022  1.0000</r>
       <r>   4.2134  1.0000</r>
       <r>   6.0982  1.0000</r>
       <r>  15.5696  0.0000</r>
       <r>  22.5082  0.0000</r>
       <r>  24.6517  0.0000</r>
      </set>
      <set comment="kpoint 53">
       <r>   0.3678  1.0000</r>
       <r>   1.3627  1.0000</r>
       <r>   1.8104  1.0000</r>
       <r>   3.1174  1.0000</r>
       <r>   4.2727  1.0000</r>
       <r>   8.3115  0.0000</r>
       <r>  15.0914  0.0000</r>
       <r>  17.9602  0.0000</r>
       <r>  24.9674  0.0000</r>
      </set>
      <set comment="kpoint 54">
       <r>   0.0684  1.0000</r>
       <r>   0.9966  1.0000</r>
       <r>   2.3469  1.0000</r>
       <r>   3.6991  1.0000</r>
       <r>   4.9280  1.0000</r>
       <r>  10.6734  0.0000</r>
       <r>  13.1355  0.0000</r>
       <r>  16.2930  0.0000</r>
       <r>  22.5217  0.0000</r>
      </set>
      <set comment="kpoint 55">
       <r>  -0.6977  1.0000</r>
       <r>   1.7024  1.0000</r>
       <r>   2.4071  1.0000</r>
       <r>   2.6555  1.0000</r>
       <r>   5.2927  1.0000</r>
       <r>   6.3327  1.0000</r>
       <r>  13.8011  0.0000</r>
       <r>  22.8562  0.0000</r>
       <r>  24.7357  0.0000</r>
      </set>
      <set comment="kpoint 56">
       <r>   0.0505  1.0000</r>
       <r>   1.1733  1.0000</r>
       <r>   2.1572  1.0000</r>
       <r>   3.0602  1.0000</r>
       <r>   5.0355  1.0000</r>
       <r>   8.7984  0.0000</r>
       <r>  12.8275  0.0000</r>
       <r>  20.5614  0.0000</r>
       <r>  22.0429  0.0000</r>
      </set>
      <set comment="kpoint 57">
       <r>   0.4055  1.0000</r>
       <r>   0.9603  1.0000</r>
       <r>   1.8520  1.0000</r>
       <r>   3.6590  1.0000</r>
       <r>   5.2216  1.0000</r>
       <r>  11.1468  0.0000</r>
       <r>  13.3462  0.0000</r>
       <r>  16.1921  0.0000</r>
       <r>  20.1609  0.0000</r>
      </set>
      <set comment="kpoint 58">
       <r>  -0.0291  1.0000</r>
       <r>   1.0767  1.0000</r>
       <r>   2.3672  1.0000</r>
       <r>   3.2595  1.0000</r>
       <r>   5.2169  1.0000</r>
       <r>  10.6260  0.0000</r>
       <r>  11.3089  0.0000</r>
       <r>  19.0403  0.0000</r>
       <r>  22.8447  0.0000</r>
      </set>
      <set comment="kpoint 59">
       <r>  -1.1273  1.0000</r>
       <r>   1.9376  1.0000</r>
       <r>   1.9376  1.0000</r>
       <r>   5.0899  1.0000</r>
       <r>   5.1937  1.0000</r>
       <r>   5.1937  1.0000</r>
       <r>  12.2562  0.0000</r>
       <r>  22.2068  0.0000</r>
       <r>  26.4458  0.0000</r>
      </set>
      <set comment="kpoint 60">
       <r>  -0.6842  1.0000</r>
       <r>   1.6104  1.0000</r>
       <r>   2.2601  1.0000</r>
       <r>   3.5425  1.0000</r>
       <r>   5.1523  1.0000</r>
       <r>   8.0390  0.0000</r>
       <r>  11.3271  0.0000</r>
       <r>  22.2350  0.0000</r>
       <r>  24.1814  0.0000</r>
      </set>
     </set>
    </set>
   </array>
  </eigenvalues>
  <dos>
   <i name="efermi""      7.44543084</i>
   <total>
    <array>
     <dimension dim="1">gridpoints</dimension>
     <dimension dim="2">spin</dimension>
     <field>energy</field>
     <field>total</field>
     <field>integrated</field>
     <set>
      <set comment="spin 1">
       <r>  -5.2538   0.0000   0.0000 </r>
       <r>  -5.1350   0.0000   0.0000 </r>
       <r>  -5.0162   0.0000   0.0000 </r>
       <r>  -4.8973   0.0000   0.0000 </r>
       <r>  -4.7785   0.0000   0.0000 </r>
       <r>  -4.6597   0.0000   0.0000 </r>
       <r>  -4.5408   0.0000   0.0000 </r>
       <r>  -4.4220   0.0000   0.0000 </r>
       <r>  -4.3032   0.0000   0.0000 </r>
       <r>  -4.1843   0.0000   0.0000 </r>
       <r>  -4.0655   0.0000   0.0000 </r>
       <r>  -3.9466   0.0000   0.0000 </r>
       <r>  -3.8278   0.0002   0.0000 </r>
       <r>  -3.7090   0.0092   0.0011 </r>
       <r>  -3.5901   0.0386   0.0057 </r>
       <r>  -3.4713   0.0171   0.0077 </r>
       <r>  -3.3525   0.0102   0.0090 </r>
       <r>  -3.2336   0.0908   0.0197 </r>
       <r>  -3.1148   0.0881   0.0302 </r>
       <r>  -2.9960   0.0143   0.0319 </r>
       <r>  -2.8771   0.0760   0.0409 </r>
       <r>  -2.7583   0.1015   0.0530 </r>
       <r>  -2.6395   0.0209   0.0555 </r>
       <r>  -2.5206   0.0899   0.0662 </r>
       <r>  -2.4018   0.1402   0.0828 </r>
       <r>  -2.2829   0.0411   0.0877 </r>
       <r>  -2.1641   0.1697   0.1079 </r>
       <r>  -2.0453   0.1953   0.1311 </r>
       <r>  -1.9264   0.1037   0.1434 </r>
       <r>  -1.8076   0.0964   0.1549 </r>
       <r>  -1.6888   0.0191   0.1571 </r>
       <r>  -1.5699   0.1426   0.1741 </r>
       <r>  -1.4511   0.3346   0.2139 </r>
       <r>  -1.3323   0.1815   0.2354 </r>
       <r>  -1.2134   0.3051   0.2717 </r>
       <r>  -1.0946   0.3817   0.3170 </r>
       <r>  -0.9757   0.5473   0.3821 </r>
       <r>  -0.8569   0.5563   0.4482 </r>
       <r>  -0.7381   0.8730   0.5519 </r>
       <r>  -0.6192   0.9358   0.6631 </r>
       <r>  -0.5004   0.9587   0.7771 </r>
       <r>  -0.3816   1.6011   0.9673 </r>
       <r>  -0.2627   1.5052   1.1462 </r>
       <r>  -0.1439   1.4631   1.3200 </r>
       <r>  -0.0251   1.8906   1.5447 </r>
       <r>   0.0938   1.5899   1.7336 </r>
       <r>   0.2126   1.1489   1.8702 </r>
       <r>   0.3314   1.4676   2.0446 </r>
       <r>   0.4503   1.6053   2.2354 </r>
       <r>   0.5691   1.0943   2.3654 </r>
       <r>   0.6880   1.1909   2.5069 </r>
       <r>   0.8068   0.7212   2.5926 </r>
       <r>   0.9256   1.2180   2.7374 </r>
       <r>   1.0445   1.8568   2.9580 </r>
       <r>   1.1633   1.4712   3.1328 </r>
       <r>   1.2821   1.3261   3.2904 </r>
       <r>   1.4010   1.7181   3.4946 </r>
       <r>   1.5198   1.3313   3.6528 </r>
       <r>   1.6386   1.5796   3.8405 </r>
       <r>   1.7575   1.7765   4.0516 </r>
       <r>   1.8763   2.2138   4.3147 </r>
       <r>   1.9951   1.8696   4.5369 </r>
       <r>   2.1140   1.8153   4.7526 </r>
       <r>   2.2328   2.0229   4.9930 </r>
       <r>   2.3517   2.6782   5.3113 </r>
       <r>   2.4705   2.7092   5.6332 </r>
       <r>   2.5893   1.7360   5.8395 </r>
       <r>   2.7082   1.7721   6.0501 </r>
       <r>   2.8270   1.4275   6.2197 </r>
       <r>   2.9458   1.2602   6.3695 </r>
       <r>   3.0647   1.4637   6.5434 </r>
       <r>   3.1835   1.1024   6.6744 </r>
       <r>   3.3023   0.9281   6.7847 </r>
       <r>   3.4212   1.4408   6.9559 </r>
       <r>   3.5400   2.2217   7.2199 </r>
       <r>   3.6588   2.3010   7.4934 </r>
       <r>   3.7777   1.7148   7.6972 </r>
       <r>   3.8965   0.9931   7.8152 </r>
       <r>   4.0154   0.8680   7.9183 </r>
       <r>   4.1342   1.6389   8.1131 </r>
       <r>   4.2530   2.1413   8.3676 </r>
       <r>   4.3719   1.3932   8.5331 </r>
       <r>   4.4907   0.6412   8.6093 </r>
       <r>   4.6095   0.8191   8.7066 </r>
       <r>   4.7284   1.8651   8.9283 </r>
       <r>   4.8472   1.6365   9.1227 </r>
       <r>   4.9660   1.2982   9.2770 </r>
       <r>   5.0849   1.3261   9.4346 </r>
       <r>   5.2037   2.2638   9.7036 </r>
       <r>   5.3225   3.1604  10.0792 </r>
       <r>   5.4414   1.9883  10.3155 </r>
       <r>   5.5602   0.8407  10.4154 </r>
       <r>   5.6791   0.8963  10.5219 </r>
       <r>   5.7979   0.3635  10.5651 </r>
       <r>   5.9167   0.0439  10.5703 </r>
       <r>   6.0356   0.0409  10.5752 </r>
       <r>   6.1544   0.2415  10.6039 </r>
       <r>   6.2732   0.6360  10.6795 </r>
       <r>   6.3921   0.6896  10.7614 </r>
       <r>   6.5109   0.1625  10.7807 </r>
       <r>   6.6297   0.0335  10.7847 </r>
       <r>   6.7486   0.2194  10.8108 </r>
       <r>   6.8674   0.2764  10.8436 </r>
       <r>   6.9862   0.1623  10.8629 </r>
       <r>   7.1051   0.2655  10.8944 </r>
       <r>   7.2239   0.3510  10.9362 </r>
       <r>   7.3428   0.3973  10.9834 </r>
       <r>   7.4616   0.1671  11.0032 </r>
       <r>   7.5804   0.2377  11.0315 </r>
       <r>   7.6993   0.1213  11.0459 </r>
       <r>   7.8181   0.2530  11.0760 </r>
       <r>   7.9369   0.2934  11.1108 </r>
       <r>   8.0558   0.2842  11.1446 </r>
       <r>   8.1746   0.1065  11.1573 </r>
       <r>   8.2934   0.2368  11.1854 </r>
       <r>   8.4123   0.4411  11.2378 </r>
       <r>   8.5311   0.2043  11.2621 </r>
       <r>   8.6499   0.2752  11.2948 </r>
       <r>   8.7688   0.3286  11.3338 </r>
       <r>   8.8876   0.4688  11.3896 </r>
       <r>   9.0065   0.1946  11.4127 </r>
       <r>   9.1253   0.0487  11.4185 </r>
       <r>   9.2441   0.2164  11.4442 </r>
       <r>   9.3630   0.1336  11.4601 </r>
       <r>   9.4818   0.0546  11.4666 </r>
       <r>   9.6006   0.3226  11.5049 </r>
       <r>   9.7195   0.4180  11.5546 </r>
       <r>   9.8383   0.4148  11.6039 </r>
       <r>   9.9571   0.3253  11.6425 </r>
       <r>  10.0760   0.0493  11.6484 </r>
       <r>  10.1948   0.0298  11.6519 </r>
       <r>  10.3136   0.2047  11.6762 </r>
       <r>  10.4325   0.1512  11.6942 </r>
       <r>  10.5513   0.0824  11.7040 </r>
       <r>  10.6702   0.3244  11.7426 </r>
       <r>  10.7890   0.2784  11.7756 </r>
       <r>  10.9078   0.2477  11.8051 </r>
       <r>  11.0267   0.0922  11.8160 </r>
       <r>  11.1455   0.3588  11.8587 </r>
       <r>  11.2643   0.6719  11.9385 </r>
       <r>  11.3832   0.5856  12.0081 </r>
       <r>  11.5020   0.1269  12.0232 </r>
       <r>  11.6208   0.0698  12.0315 </r>
       <r>  11.7397   0.4367  12.0834 </r>
       <r>  11.8585   0.4784  12.1402 </r>
       <r>  11.9773   0.1872  12.1625 </r>
       <r>  12.0962   0.0691  12.1707 </r>
       <r>  12.2150   0.2693  12.2027 </r>
       <r>  12.3339   0.4143  12.2519 </r>
       <r>  12.4527   0.5415  12.3163 </r>
       <r>  12.5715   0.1599  12.3353 </r>
       <r>  12.6904   0.0216  12.3378 </r>
       <r>  12.8092   0.2287  12.3650 </r>
       <r>  12.9280   0.4265  12.4157 </r>
       <r>  13.0469   0.2983  12.4512 </r>
       <r>  13.1657   0.2469  12.4805 </r>
       <r>  13.2845   0.2270  12.5075 </r>
       <r>  13.4034   0.2637  12.5388 </r>
       <r>  13.5222   0.3145  12.5762 </r>
       <r>  13.6410   0.4661  12.6316 </r>
       <r>  13.7599   0.2705  12.6637 </r>
       <r>  13.8787   0.1763  12.6847 </r>
       <r>  13.9976   0.1745  12.7054 </r>
       <r>  14.1164   0.7247  12.7915 </r>
       <r>  14.2352   0.9131  12.9000 </r>
       <r>  14.3541   0.2634  12.9313 </r>
       <r>  14.4729   0.1420  12.9482 </r>
       <r>  14.5917   0.1319  12.9639 </r>
       <r>  14.7106   0.0439  12.9691 </r>
       <r>  14.8294   0.1029  12.9813 </r>
       <r>  14.9482   0.2524  13.0113 </r>
       <r>  15.0671   0.2962  13.0465 </r>
       <r>  15.1859   0.2958  13.0817 </r>
       <r>  15.3047   0.0938  13.0928 </r>
       <r>  15.4236   0.2123  13.1180 </r>
       <r>  15.5424   0.3585  13.1606 </r>
       <r>  15.6613   0.3852  13.2064 </r>
       <r>  15.7801   0.2694  13.2384 </r>
       <r>  15.8989   0.3639  13.2817 </r>
       <r>  16.0178   0.1343  13.2976 </r>
       <r>  16.1366   0.3276  13.3366 </r>
       <r>  16.2554   1.0043  13.4559 </r>
       <r>  16.3743   0.5362  13.5196 </r>
       <r>  16.4931   0.3290  13.5587 </r>
       <r>  16.6119   0.1489  13.5764 </r>
       <r>  16.7308   0.1050  13.5889 </r>
       <r>  16.8496   0.4617  13.6438 </r>
       <r>  16.9684   0.3976  13.6910 </r>
       <r>  17.0873   0.1468  13.7085 </r>
       <r>  17.2061   0.4069  13.7568 </r>
       <r>  17.3250   0.3187  13.7947 </r>
       <r>  17.4438   0.1256  13.8096 </r>
       <r>  17.5626   0.2873  13.8437 </r>
       <r>  17.6815   0.5536  13.9095 </r>
       <r>  17.8003   0.5887  13.9795 </r>
       <r>  17.9191   0.3352  14.0193 </r>
       <r>  18.0380   0.3705  14.0633 </r>
       <r>  18.1568   0.1654  14.0830 </r>
       <r>  18.2756   0.2588  14.1138 </r>
       <r>  18.3945   0.4916  14.1722 </r>
       <r>  18.5133   0.7036  14.2558 </r>
       <r>  18.6321   0.6064  14.3279 </r>
       <r>  18.7510   0.4184  14.3776 </r>
       <r>  18.8698   0.4942  14.4363 </r>
       <r>  18.9887   0.2689  14.4683 </r>
       <r>  19.1075   0.4510  14.5219 </r>
       <r>  19.2263   0.5101  14.5825 </r>
       <r>  19.3452   0.8074  14.6784 </r>
       <r>  19.4640   0.9400  14.7901 </r>
       <r>  19.5828   0.3779  14.8350 </r>
       <r>  19.7017   0.4236  14.8854 </r>
       <r>  19.8205   0.2991  14.9209 </r>
       <r>  19.9393   0.1269  14.9360 </r>
       <r>  20.0582   0.1023  14.9482 </r>
       <r>  20.1770   0.2374  14.9764 </r>
       <r>  20.2958   0.3584  15.0190 </r>
       <r>  20.4147   0.3246  15.0575 </r>
       <r>  20.5335   0.8436  15.1578 </r>
       <r>  20.6524   0.9230  15.2675 </r>
       <r>  20.7712   0.5692  15.3351 </r>
       <r>  20.8900   0.6709  15.4149 </r>
       <r>  21.0089   0.5149  15.4760 </r>
       <r>  21.1277   0.1417  15.4929 </r>
       <r>  21.2465   0.4688  15.5486 </r>
       <r>  21.3654   0.5402  15.6128 </r>
       <r>  21.4842   0.2376  15.6410 </r>
       <r>  21.6030   0.5389  15.7050 </r>
       <r>  21.7219   0.3654  15.7485 </r>
       <r>  21.8407   0.3567  15.7909 </r>
       <r>  21.9595   0.3417  15.8315 </r>
       <r>  22.0784   0.9433  15.9436 </r>
       <r>  22.1972   1.0809  16.0720 </r>
       <r>  22.3161   0.6340  16.1474 </r>
       <r>  22.4349   0.1907  16.1700 </r>
       <r>  22.5537   0.5777  16.2387 </r>
       <r>  22.6726   0.5205  16.3005 </r>
       <r>  22.7914   0.7552  16.3903 </r>
       <r>  22.9102   0.9203  16.4996 </r>
       <r>  23.0291   0.5250  16.5620 </r>
       <r>  23.1479   0.1928  16.5849 </r>
       <r>  23.2667   0.0795  16.5944 </r>
       <r>  23.3856   0.5309  16.6575 </r>
       <r>  23.5044   0.8648  16.7602 </r>
       <r>  23.6232   0.8852  16.8654 </r>
       <r>  23.7421   0.7704  16.9570 </r>
       <r>  23.8609   0.8238  17.0549 </r>
       <r>  23.9798   0.4099  17.1036 </r>
       <r>  24.0986   0.3835  17.1491 </r>
       <r>  24.2174   0.6457  17.2259 </r>
       <r>  24.3363   0.6434  17.3023 </r>
       <r>  24.4551   0.4591  17.3569 </r>
       <r>  24.5739   0.2384  17.3852 </r>
       <r>  24.6928   0.2848  17.4191 </r>
       <r>  24.8116   0.1931  17.4420 </r>
       <r>  24.9304   0.0994  17.4538 </r>
       <r>  25.0493   0.2544  17.4841 </r>
       <r>  25.1681   0.2656  17.5156 </r>
       <r>  25.2869   0.1799  17.5370 </r>
       <r>  25.4058   0.2566  17.5675 </r>
       <r>  25.5246   0.3540  17.6096 </r>
       <r>  25.6435   0.4928  17.6681 </r>
       <r>  25.7623   0.5463  17.7330 </r>
       <r>  25.8811   0.1380  17.7494 </r>
       <r>  26.0000   0.0047  17.7500 </r>
       <r>  26.1188   0.0005  17.7501 </r>
       <r>  26.2376   0.0317  17.7538 </r>
       <r>  26.3565   0.2172  17.7796 </r>
       <r>  26.4753   0.2297  17.8069 </r>
       <r>  26.5941   0.0890  17.8175 </r>
       <r>  26.7130   0.2374  17.8457 </r>
       <r>  26.8318   0.2202  17.8719 </r>
       <r>  26.9506   0.0868  17.8822 </r>
       <r>  27.0695   0.0554  17.8888 </r>
       <r>  27.1883   0.2309  17.9162 </r>
       <r>  27.3072   0.2428  17.9451 </r>
       <r>  27.4260   0.1292  17.9604 </r>
       <r>  27.5448   0.1455  17.9777 </r>
       <r>  27.6637   0.0524  17.9840 </r>
       <r>  27.7825   0.0034  17.9844 </r>
       <r>  27.9013   0.0000  17.9844 </r>
       <r>  28.0202   0.0000  17.9844 </r>
       <r>  28.1390   0.0000  17.9844 </r>
       <r>  28.2578   0.0002  17.9844 </r>
       <r>  28.3767   0.0094  17.9855 </r>
       <r>  28.4955   0.0387  17.9901 </r>
       <r>  28.6143   0.0174  17.9922 </r>
       <r>  28.7332   0.0178  17.9943 </r>
       <r>  28.8520   0.0386  17.9989 </r>
       <r>  28.9709   0.0092  18.0000 </r>
       <r>  29.0897   0.0002  18.0000 </r>
       <r>  29.2085   0.0000  18.0000 </r>
       <r>  29.3274   0.0000  18.0000 </r>
       <r>  29.4462   0.0000  18.0000 </r>
       <r>  29.5650   0.0000  18.0000 </r>
       <r>  29.6839   0.0000  18.0000 </r>
       <r>  29.8027   0.0000  18.0000 </r>
       <r>  29.9215   0.0000  18.0000 </r>
       <r>  30.0404   0.0000  18.0000 </r>
       <r>  30.1592   0.0000  18.0000 </r>
       <r>  30.2780   0.0000  18.0000 </r>
       <r>  30.3969   0.0000  18.0000 </r>
      </set>
     </set>
    </array>
   </total>
   <partial>
    <array>
     <dimension dim="1">gridpoints</dimension>
     <dimension dim="2">spin</dimension>
     <dimension dim="3">ion</dimension>
     <field>energy</field>
     <field>  s</field>
     <field> py</field>
     <field> pz</field>
     <field> px</field>
     <field>dxy</field>
     <field>dyz</field>
     <field>dz2</field>
     <field>dxz</field>
     <field>dx2</field>
     <set>
      <set comment="ion 1">
       <set comment="spin 1">
        <r>  -5.2538   0.0000   0.0000   0.0000   0.0000   0.0000   0.0000   0.0000   0.0000   0.0000 </r>
        <r>  -5.1350   0.0000   0.0000   0.0000   0.0000   0.0000   0.0000   0.0000   0.0000   0.0000 </r>
        <r>  -5.0162   0.0000   0.0000   0.0000   0.0000   0.0000   0.0000   0.0000   0.0000   0.0000 </r>
        <r>  -4.8973   0.0000   0.0000   0.0000   0.0000   0.0000   0.0000   0.0000   0.0000   0.0000 </r>
        <r>  -4.7785   0.0000   0.0000   0.0000   0.0000   0.0000   0.0000   0.0000   0.0000   0.0000 </r>
        <r>  -4.6597   0.0000   0.0000   0.0000   0.0000   0.0000   0.0000   0.0000   0.0000   0.0000 </r>
        <r>  -4.5408   0.0000   0.0000   0.0000   0.0000   0.0000   0.0000   0.0000   0.0000   0.0000 </r>
        <r>  -4.4220   0.0000   0.0000   0.0000   0.0000   0.0000   0.0000   0.0000   0.0000   0.0000 </r>
        <r>  -4.3032   0.0000   0.0000   0.0000   0.0000   0.0000   0.0000   0.0000   0.0000   0.0000 </r>
        <r>  -4.1843   0.0000   0.0000   0.0000   0.0000   0.0000   0.0000   0.0000   0.0000   0.0000 </r>
        <r>  -4.0655   0.0000   0.0000   0.0000   0.0000   0.0000   0.0000   0.0000   0.0000   0.0000 </r>
        <r>  -3.9466   0.0000   0.0000   0.0000   0.0000   0.0000   0.0000   0.0000   0.0000   0.0000 </r>
        <r>  -3.8278   0.0001   0.0000   0.0000   0.0000   0.0000   0.0000   0.0000   0.0000   0.0000 </r>
        <r>  -3.7090   0.0062   0.0000   0.0000   0.0000   0.0000   0.0000   0.0000   0.0000   0.0000 </r>
        <r>  -3.5901   0.0263   0.0001   0.0001   0.0001   0.0000   0.0000   0.0000   0.0000   0.0000 </r>
        <r>  -3.4713   0.0117   0.0000   0.0000   0.0000   0.0000   0.0000   0.0000   0.0000   0.0000 </r>
        <r>  -3.3525   0.0068   0.0000   0.0000   0.0002   0.0000   0.0000   0.0000   0.0000   0.0000 </r>
        <r>  -3.2336   0.0599   0.0002   0.0002   0.0019   0.0001   0.0000   0.0000   0.0001   0.0001 </r>
        <r>  -3.1148   0.0581   0.0002   0.0002   0.0019   0.0001   0.0000   0.0000   0.0001   0.0001 </r>
        <r>  -2.9960   0.0093   0.0001   0.0001   0.0002   0.0000   0.0000   0.0000   0.0000   0.0000 </r>
        <r>  -2.8771   0.0485   0.0015   0.0015   0.0002   0.0001   0.0006   0.0000   0.0001   0.0000 </r>
        <r>  -2.7583   0.0647   0.0020   0.0020   0.0002   0.0001   0.0008   0.0000   0.0001   0.0001 </r>
        <r>  -2.6395   0.0131   0.0004   0.0005   0.0001   0.0001   0.0002   0.0000   0.0001   0.0000 </r>
        <r>  -2.5206   0.0551   0.0007   0.0038   0.0007   0.0004   0.0005   0.0007   0.0005   0.0000 </r>
        <r>  -2.4018   0.0859   0.0007   0.0068   0.0007   0.0003   0.0006   0.0013   0.0006   0.0000 </r>
        <r>  -2.2829   0.0248   0.0003   0.0014   0.0009   0.0004   0.0001   0.0003   0.0001   0.0001 </r>
        <r>  -2.1641   0.0999   0.0029   0.0003   0.0088   0.0038   0.0004   0.0006   0.0006   0.0007 </r>
        <r>  -2.0453   0.1147   0.0033   0.0004   0.0101   0.0044   0.0006   0.0007   0.0009   0.0008 </r>
        <r>  -1.9264   0.0579   0.0014   0.0011   0.0047   0.0030   0.0019   0.0002   0.0026   0.0003 </r>
        <r>  -1.8076   0.0531   0.0012   0.0012   0.0042   0.0030   0.0021   0.0001   0.0030   0.0003 </r>
        <r>  -1.6888   0.0103   0.0004   0.0006   0.0005   0.0004   0.0006   0.0001   0.0004   0.0001 </r>
        <r>  -1.5699   0.0744   0.0040   0.0082   0.0003   0.0018   0.0068   0.0033   0.0020   0.0003 </r>
        <r>  -1.4511   0.1703   0.0081   0.0189   0.0010   0.0073   0.0164   0.0086   0.0077   0.0005 </r>
        <r>  -1.3323   0.0872   0.0035   0.0100   0.0009   0.0070   0.0109   0.0049   0.0070   0.0001 </r>
        <r>  -1.2134   0.1440   0.0039   0.0225   0.0010   0.0095   0.0169   0.0132   0.0091   0.0000 </r>
        <r>  -1.0946   0.1483   0.0029   0.0185   0.0027   0.0343   0.0392   0.0101   0.0334   0.0002 </r>
        <r>  -0.9757   0.1597   0.0038   0.0052   0.0093   0.0852   0.0889   0.0060   0.0793   0.0012 </r>
        <r>  -0.8569   0.1571   0.0059   0.0018   0.0155   0.0753   0.0694   0.0571   0.0569   0.0025 </r>
        <r>  -0.7381   0.2303   0.0097   0.0108   0.0223   0.1130   0.0923   0.1396   0.0694   0.0040 </r>
        <r>  -0.6192   0.2047   0.0080   0.0192   0.0107   0.1149   0.1004   0.2157   0.0759   0.0025 </r>
        <r>  -0.5004   0.1535   0.0056   0.0239   0.0063   0.1428   0.0575   0.3459   0.0339   0.0079 </r>
        <r>  -0.3816   0.2614   0.0076   0.0431   0.0132   0.3649   0.1382   0.3932   0.0760   0.0133 </r>
        <r>  -0.2627   0.2074   0.0098   0.0288   0.0141   0.4452   0.1705   0.2883   0.0813   0.0087 </r>
        <r>  -0.1439   0.1588   0.0145   0.0269   0.0097   0.5130   0.1206   0.3315   0.0479   0.0056 </r>
        <r>  -0.0251   0.1690   0.0160   0.0345   0.0097   0.7344   0.1105   0.4703   0.0455   0.0097 </r>
        <r>   0.0938   0.1335   0.0122   0.0257   0.0145   0.5938   0.1711   0.3101   0.0540   0.0386 </r>
        <r>   0.2126   0.0883   0.0130   0.0092   0.0257   0.4437   0.1450   0.1491   0.0326   0.0720 </r>
        <r>   0.3314   0.0915   0.0231   0.0067   0.0354   0.6012   0.1581   0.2345   0.0251   0.0785 </r>
        <r>   0.4503   0.0698   0.0220   0.0092   0.0238   0.5499   0.2491   0.3195   0.0232   0.1191 </r>
        <r>   0.5691   0.0286   0.0207   0.0069   0.0182   0.4086   0.1103   0.2403   0.0139   0.0958 </r>
        <r>   0.6880   0.0351   0.0258   0.0178   0.0233   0.3981   0.1809   0.2418   0.0232   0.0749 </r>
        <r>   0.8068   0.0162   0.0160   0.0115   0.0149   0.2170   0.1322   0.1618   0.0151   0.0350 </r>
        <r>   0.9256   0.0144   0.0212   0.0242   0.0219   0.4766   0.2142   0.1862   0.0286   0.0735 </r>
        <r>   1.0445   0.0229   0.0387   0.0358   0.0322   0.5755   0.3517   0.3651   0.0510   0.1378 </r>
        <r>   1.1633   0.0124   0.0402   0.0151   0.0248   0.1699   0.2642   0.5808   0.0635   0.0985 </r>
        <r>   1.2821   0.0153   0.0272   0.0165   0.0205   0.2139   0.2862   0.3787   0.1168   0.0842 </r>
        <r>   1.4010   0.0228   0.0167   0.0283   0.0258   0.4462   0.3906   0.2205   0.2169   0.1588 </r>
        <r>   1.5198   0.0215   0.0177   0.0180   0.0254   0.2921   0.2785   0.2902   0.1045   0.1283 </r>
        <r>   1.6386   0.0266   0.0259   0.0135   0.0312   0.3191   0.2688   0.4748   0.1013   0.1358 </r>
        <r>   1.7575   0.0375   0.0183   0.0251   0.0290   0.3294   0.4502   0.4129   0.1435   0.1417 </r>
        <r>   1.8763   0.0614   0.0198   0.0659   0.0581   0.5220   0.6609   0.2162   0.1667   0.1893 </r>
        <r>   1.9951   0.0355   0.0145   0.0461   0.0396   0.4433   0.4554   0.2157   0.1484   0.2758 </r>
        <r>   2.1140   0.0307   0.0151   0.0282   0.0227   0.4316   0.2794   0.4115   0.1662   0.2587 </r>
        <r>   2.2328   0.0260   0.0155   0.0263   0.0168   0.3983   0.3449   0.4795   0.3171   0.2266 </r>
        <r>   2.3517   0.0427   0.0268   0.0661   0.0317   0.4560   0.6504   0.4033   0.4280   0.3249 </r>
        <r>   2.4705   0.0607   0.0326   0.0975   0.0425   0.4912   0.6467   0.2817   0.4673   0.3114 </r>
        <r>   2.5893   0.0259   0.0147   0.0328   0.0211   0.1740   0.3622   0.1993   0.4952   0.2634 </r>
        <r>   2.7082   0.0508   0.0190   0.0617   0.0236   0.1581   0.3960   0.2839   0.3563   0.2468 </r>
        <r>   2.8270   0.0424   0.0164   0.0648   0.0170   0.0997   0.3549   0.2255   0.2268   0.2312 </r>
        <r>   2.9458   0.0136   0.0144   0.0486   0.0147   0.1014   0.2995   0.1373   0.2519   0.2609 </r>
        <r>   3.0647   0.0072   0.0138   0.0352   0.0161   0.1283   0.2087   0.1428   0.3827   0.4101 </r>
        <r>   3.1835   0.0088   0.0046   0.0214   0.0078   0.0513   0.1076   0.1925   0.2343   0.3927 </r>
        <r>   3.3023   0.0057   0.0034   0.0082   0.0047   0.0261   0.0566   0.2091   0.1583   0.3964 </r>
        <r>   3.4212   0.0154   0.0115   0.0229   0.0157   0.0507   0.1450   0.2107   0.2263   0.6367 </r>
        <r>   3.5400   0.0386   0.0279   0.0709   0.0341   0.0723   0.3610   0.2942   0.3713   0.7567 </r>
        <r>   3.6588   0.0477   0.0246   0.0753   0.0266   0.0997   0.2876   0.3939   0.4205   0.7312 </r>
        <r>   3.7777   0.0238   0.0097   0.0232   0.0130   0.0604   0.1101   0.3784   0.2181   0.7624 </r>
        <r>   3.8965   0.0061   0.0028   0.0032   0.0082   0.0358   0.0236   0.3101   0.1043   0.4455 </r>
        <r>   4.0154   0.0037   0.0027   0.0068   0.0073   0.0113   0.0687   0.1997   0.1507   0.3729 </r>
        <r>   4.1342   0.0134   0.0053   0.0373   0.0082   0.0363   0.2732   0.1229   0.4343   0.6133 </r>
        <r>   4.2530   0.0234   0.0081   0.0370   0.0100   0.1336   0.2195   0.3368   0.5009   0.7561 </r>
        <r>   4.3719   0.0147   0.0095   0.0190   0.0087   0.1081   0.1052   0.2237   0.2799   0.5487 </r>
        <r>   4.4907   0.0035   0.0092   0.0106   0.0085   0.0297   0.0913   0.0513   0.0869   0.3108 </r>
        <r>   4.6095   0.0068   0.0037   0.0138   0.0042   0.0224   0.1316   0.0414   0.2200   0.3362 </r>
        <r>   4.7284   0.0126   0.0042   0.0216   0.0061   0.0748   0.2655   0.0946   0.6602   0.6508 </r>
        <r>   4.8472   0.0084   0.0044   0.0115   0.0061   0.1094   0.1562   0.1205   0.5243   0.6357 </r>
        <r>   4.9660   0.0099   0.0042   0.0101   0.0086   0.1322   0.0788   0.1000   0.4317   0.4732 </r>
        <r>   5.0849   0.0084   0.0061   0.0108   0.0087   0.1215   0.1158   0.1179   0.5184   0.3693 </r>
        <r>   5.2037   0.0241   0.0089   0.0247   0.0131   0.2145   0.2426   0.2095   0.9892   0.4555 </r>
        <r>   5.3225   0.0432   0.0092   0.0277   0.0185   0.2682   0.4550   0.2380   1.4650   0.5310 </r>
        <r>   5.4414   0.0278   0.0067   0.0087   0.0111   0.2024   0.3473   0.1970   0.7534   0.3773 </r>
        <r>   5.5602   0.0068   0.0019   0.0009   0.0030   0.0650   0.1378   0.0638   0.4387   0.1050 </r>
        <r>   5.6791   0.0027   0.0017   0.0021   0.0017   0.0049   0.1116   0.0059   0.7198   0.0290 </r>
        <r>   5.7979   0.0065   0.0046   0.0047   0.0027   0.0016   0.0858   0.0094   0.2021   0.0319 </r>
        <r>   5.9167   0.0020   0.0014   0.0014   0.0008   0.0004   0.0170   0.0029   0.0060   0.0088 </r>
        <r>   6.0356   0.0034   0.0013   0.0014   0.0004   0.0001   0.0181   0.0035   0.0002   0.0095 </r>
        <r>   6.1544   0.0224   0.0068   0.0112   0.0022   0.0015   0.1050   0.0255   0.0021   0.0456 </r>
        <r>   6.2732   0.0653   0.0155   0.0376   0.0052   0.0046   0.2700   0.0746   0.0121   0.0974 </r>
        <r>   6.3921   0.0753   0.0157   0.0524   0.0064   0.0058   0.2752   0.0841   0.0264   0.0827 </r>
        <r>   6.5109   0.0186   0.0036   0.0152   0.0018   0.0016   0.0612   0.0210   0.0086   0.0134 </r>
        <r>   6.6297   0.0038   0.0010   0.0075   0.0011   0.0005   0.0053   0.0029   0.0036   0.0011 </r>
        <r>   6.7486   0.0208   0.0107   0.0455   0.0122   0.0049   0.0270   0.0172   0.0250   0.0095 </r>
        <r>   6.8674   0.0267   0.0141   0.0452   0.0160   0.0073   0.0396   0.0262   0.0371   0.0113 </r>
        <r>   6.9862   0.0156   0.0093   0.0156   0.0124   0.0266   0.0144   0.0236   0.0132   0.0044 </r>
        <r>   7.1051   0.0230   0.0185   0.0160   0.0266   0.0747   0.0061   0.0444   0.0038   0.0079 </r>
        <r>   7.2239   0.0480   0.0162   0.0082   0.0258   0.1324   0.0022   0.0703   0.0016   0.0040 </r>
        <r>   7.3428   0.0623   0.0147   0.0038   0.0251   0.1635   0.0007   0.0834   0.0007   0.0023 </r>
        <r>   7.4616   0.0283   0.0045   0.0006   0.0150   0.0683   0.0001   0.0289   0.0008   0.0028 </r>
        <r>   7.5804   0.0414   0.0049   0.0007   0.0272   0.0940   0.0005   0.0332   0.0019   0.0063 </r>
        <r>   7.6993   0.0202   0.0031   0.0079   0.0086   0.0256   0.0168   0.0165   0.0044   0.0029 </r>
        <r>   7.8181   0.0399   0.0073   0.0359   0.0052   0.0021   0.0728   0.0326   0.0162   0.0049 </r>
        <r>   7.9369   0.0439   0.0063   0.0595   0.0041   0.0008   0.0837   0.0296   0.0126   0.0051 </r>
        <r>   8.0558   0.0314   0.0140   0.0568   0.0122   0.0010   0.0725   0.0206   0.0069   0.0142 </r>
        <r>   8.1746   0.0074   0.0099   0.0151   0.0097   0.0015   0.0219   0.0052   0.0022   0.0109 </r>
        <r>   8.2934   0.0354   0.0116   0.0363   0.0141   0.0108   0.0423   0.0079   0.0140   0.0205 </r>
        <r>   8.4123   0.0647   0.0207   0.0815   0.0200   0.0137   0.0853   0.0144   0.0216   0.0349 </r>
        <r>   8.5311   0.0396   0.0082   0.0317   0.0041   0.0018   0.0562   0.0118   0.0043   0.0122 </r>
        <r>   8.6499   0.0644   0.0081   0.0343   0.0014   0.0001   0.0871   0.0235   0.0063   0.0101 </r>
        <r>   8.7688   0.0573   0.0121   0.0548   0.0086   0.0019   0.0766   0.0330   0.0227   0.0070 </r>
        <r>   8.8876   0.0542   0.0322   0.0721   0.0301   0.0105   0.0946   0.0562   0.0172   0.0109 </r>
        <r>   9.0065   0.0122   0.0177   0.0305   0.0182   0.0075   0.0313   0.0263   0.0047   0.0041 </r>
        <r>   9.1253   0.0082   0.0017   0.0098   0.0013   0.0006   0.0122   0.0050   0.0008   0.0004 </r>
        <r>   9.2441   0.0456   0.0028   0.0465   0.0004   0.0000   0.0621   0.0193   0.0029   0.0013 </r>
        <r>   9.3630   0.0282   0.0018   0.0286   0.0003   0.0002   0.0381   0.0119   0.0018   0.0008 </r>
        <r>   9.4818   0.0164   0.0022   0.0036   0.0040   0.0113   0.0031   0.0032   0.0003   0.0004 </r>
        <r>   9.6006   0.0814   0.0110   0.0450   0.0206   0.0589   0.0208   0.0149   0.0033   0.0020 </r>
        <r>   9.7195   0.0669   0.0079   0.1168   0.0129   0.0335   0.0606   0.0186   0.0115   0.0013 </r>
        <r>   9.8383   0.0738   0.0148   0.0819   0.0190   0.0277   0.0608   0.0350   0.0216   0.0018 </r>
        <r>   9.9571   0.0630   0.0205   0.0347   0.0299   0.0496   0.0212   0.0293   0.0095   0.0028 </r>
        <r>  10.0760   0.0096   0.0038   0.0035   0.0058   0.0100   0.0009   0.0043   0.0006   0.0005 </r>
        <r>  10.1948   0.0093   0.0006   0.0001   0.0049   0.0070   0.0000   0.0009   0.0002   0.0014 </r>
        <r>  10.3136   0.0644   0.0039   0.0003   0.0341   0.0480   0.0000   0.0056   0.0017   0.0099 </r>
        <r>  10.4325   0.0472   0.0029   0.0008   0.0250   0.0351   0.0002   0.0042   0.0014   0.0072 </r>
        <r>  10.5513   0.0122   0.0026   0.0212   0.0037   0.0030   0.0092   0.0050   0.0078   0.0006 </r>
        <r>  10.6702   0.0581   0.0139   0.0801   0.0084   0.0027   0.0435   0.0189   0.0287   0.0009 </r>
        <r>  10.7890   0.0745   0.0125   0.0363   0.0190   0.0191   0.0272   0.0107   0.0162   0.0058 </r>
        <r>  10.9078   0.0714   0.0075   0.0055   0.0386   0.0451   0.0024   0.0069   0.0126   0.0126 </r>
        <r>  11.0267   0.0271   0.0023   0.0079   0.0101   0.0118   0.0058   0.0028   0.0035   0.0033 </r>
        <r>  11.1455   0.1101   0.0055   0.0801   0.0009   0.0036   0.0654   0.0123   0.0056   0.0005 </r>
        <r>  11.2643   0.2463   0.0118   0.0942   0.0100   0.0417   0.0967   0.0141   0.0331   0.0012 </r>
        <r>  11.3832   0.2658   0.0128   0.0139   0.0177   0.0745   0.0550   0.0027   0.0544   0.0015 </r>
        <r>  11.5020   0.0592   0.0027   0.0010   0.0039   0.0170   0.0114   0.0003   0.0130   0.0003 </r>
        <r>  11.6208   0.0271   0.0010   0.0094   0.0013   0.0023   0.0079   0.0026   0.0049   0.0002 </r>
        <r>  11.7397   0.1603   0.0089   0.0611   0.0092   0.0103   0.0529   0.0198   0.0308   0.0010 </r>
        <r>  11.8585   0.1493   0.0195   0.0696   0.0172   0.0063   0.0641   0.0268   0.0262   0.0011 </r>
        <r>  11.9773   0.0470   0.0121   0.0292   0.0103   0.0005   0.0273   0.0121   0.0050   0.0006 </r>
        <r>  12.0962   0.0284   0.0011   0.0099   0.0014   0.0008   0.0080   0.0031   0.0008   0.0014 </r>
        <r>  12.2150   0.1203   0.0016   0.0349   0.0035   0.0065   0.0294   0.0093   0.0057   0.0057 </r>
        <r>  12.3339   0.1493   0.0154   0.0473   0.0142   0.0250   0.0468   0.0065   0.0269   0.0033 </r>
        <r>  12.4527   0.1430   0.0315   0.0851   0.0296   0.0354   0.0574   0.0052   0.0320   0.0026 </r>
        <r>  12.5715   0.0365   0.0104   0.0294   0.0099   0.0097   0.0161   0.0015   0.0071   0.0010 </r>
        <r>  12.6904   0.0062   0.0013   0.0018   0.0023   0.0021   0.0009   0.0003   0.0015   0.0006 </r>
        <r>  12.8092   0.0701   0.0138   0.0104   0.0277   0.0259   0.0043   0.0032   0.0172   0.0076 </r>
        <r>  12.9280   0.1307   0.0294   0.0215   0.0521   0.0469   0.0061   0.0053   0.0250   0.0117 </r>
        <r>  13.0469   0.0883   0.0249   0.0177   0.0407   0.0305   0.0014   0.0029   0.0086   0.0052 </r>
        <r>  13.1657   0.0656   0.0135   0.0121   0.0484   0.0220   0.0006   0.0048   0.0140   0.0071 </r>
        <r>  13.2845   0.0539   0.0108   0.0120   0.0496   0.0228   0.0012   0.0055   0.0107   0.0076 </r>
        <r>  13.4034   0.0267   0.0112   0.0171   0.0771   0.0376   0.0032   0.0072   0.0102   0.0134 </r>
        <r>  13.5222   0.0928   0.0107   0.0425   0.0390   0.0199   0.0114   0.0076   0.0034   0.0128 </r>
        <r>  13.6410   0.1370   0.0155   0.0878   0.0355   0.0207   0.0297   0.0077   0.0030   0.0168 </r>
        <r>  13.7599   0.0746   0.0147   0.0336   0.0227   0.0220   0.0216   0.0017   0.0154   0.0044 </r>
        <r>  13.8787   0.0551   0.0133   0.0102   0.0142   0.0177   0.0130   0.0014   0.0137   0.0003 </r>
        <r>  13.9976   0.0810   0.0082   0.0123   0.0065   0.0049   0.0055   0.0148   0.0046   0.0008 </r>
        <r>  14.1164   0.2523   0.0440   0.0793   0.0423   0.0175   0.0410   0.0550   0.0285   0.0025 </r>
        <r>  14.2352   0.2327   0.0686   0.1196   0.0763   0.0295   0.0640   0.0576   0.0424   0.0027 </r>
        <r>  14.3541   0.0692   0.0233   0.0311   0.0258   0.0114   0.0130   0.0113   0.0087   0.0007 </r>
        <r>  14.4729   0.0550   0.0117   0.0111   0.0117   0.0061   0.0009   0.0083   0.0008   0.0000 </r>
        <r>  14.5917   0.0730   0.0022   0.0071   0.0022   0.0009   0.0001   0.0257   0.0001   0.0000 </r>
        <r>  14.7106   0.0244   0.0007   0.0025   0.0006   0.0002   0.0000   0.0086   0.0000   0.0002 </r>
        <r>  14.8294   0.0341   0.0100   0.0123   0.0080   0.0037   0.0000   0.0003   0.0007   0.0044 </r>
        <r>  14.9482   0.0812   0.0248   0.0298   0.0205   0.0097   0.0001   0.0004   0.0025   0.0115 </r>
        <r>  15.0671   0.0766   0.0280   0.0272   0.0323   0.0166   0.0012   0.0050   0.0104   0.0202 </r>
        <r>  15.1859   0.0715   0.0274   0.0251   0.0344   0.0179   0.0018   0.0062   0.0130   0.0219 </r>
        <r>  15.3047   0.0226   0.0081   0.0081   0.0095   0.0070   0.0050   0.0010   0.0061   0.0030 </r>
        <r>  15.4236   0.0393   0.0113   0.0175   0.0416   0.0209   0.0128   0.0048   0.0107   0.0011 </r>
        <r>  15.5424   0.0539   0.0129   0.0276   0.0954   0.0380   0.0137   0.0125   0.0116   0.0033 </r>
        <r>  15.6613   0.0839   0.0321   0.0287   0.0566   0.0331   0.0197   0.0056   0.0227   0.0036 </r>
        <r>  15.7801   0.0730   0.0286   0.0243   0.0263   0.0165   0.0103   0.0035   0.0120   0.0019 </r>
        <r>  15.8989   0.1170   0.0406   0.0432   0.0280   0.0118   0.0048   0.0071   0.0053   0.0024 </r>
        <r>  16.0178   0.0423   0.0148   0.0159   0.0107   0.0041   0.0017   0.0038   0.0018   0.0012 </r>
        <r>  16.1366   0.0623   0.0316   0.0297   0.0437   0.0112   0.0093   0.0360   0.0076   0.0114 </r>
        <r>  16.2554   0.1925   0.0980   0.0901   0.1336   0.0344   0.0289   0.0995   0.0249   0.0407 </r>
        <r>  16.3743   0.0814   0.0460   0.0388   0.1016   0.0264   0.0109   0.0497   0.0124   0.0285 </r>
        <r>  16.4931   0.0193   0.0244   0.0090   0.1018   0.0265   0.0022   0.0495   0.0031   0.0044 </r>
        <r>  16.6119   0.0099   0.0181   0.0044   0.0327   0.0084   0.0011   0.0348   0.0011   0.0001 </r>
        <r>  16.7308   0.0193   0.0046   0.0253   0.0084   0.0012   0.0065   0.0110   0.0026   0.0008 </r>
        <r>  16.8496   0.0817   0.0141   0.1292   0.0303   0.0023   0.0358   0.0367   0.0164   0.0037 </r>
        <r>  16.9684   0.0567   0.0172   0.1057   0.0262   0.0026   0.0334   0.0362   0.0200   0.0018 </r>
        <r>  17.0873   0.0181   0.0125   0.0201   0.0194   0.0063   0.0094   0.0110   0.0079   0.0002 </r>
        <r>  17.2061   0.0403   0.0465   0.0210   0.0834   0.0247   0.0149   0.0319   0.0149   0.0006 </r>
        <r>  17.3250   0.0371   0.0360   0.0194   0.0580   0.0200   0.0136   0.0210   0.0135   0.0005 </r>
        <r>  17.4438   0.0227   0.0152   0.0141   0.0111   0.0071   0.0075   0.0018   0.0066   0.0013 </r>
        <r>  17.5626   0.0589   0.0369   0.0321   0.0197   0.0122   0.0166   0.0026   0.0117   0.0071 </r>
        <r>  17.6815   0.1089   0.0756   0.0532   0.0617   0.0222   0.0232   0.0068   0.0164   0.0119 </r>
        <r>  17.8003   0.0775   0.0650   0.0443   0.1341   0.0332   0.0125   0.0141   0.0173   0.0071 </r>
        <r>  17.9191   0.0183   0.0354   0.0129   0.1041   0.0251   0.0018   0.0107   0.0158   0.0061 </r>
        <r>  18.0380   0.0212   0.0172   0.0136   0.1277   0.0438   0.0002   0.0041   0.0325   0.0148 </r>
        <r>  18.1568   0.0073   0.0155   0.0054   0.0446   0.0158   0.0004   0.0130   0.0107   0.0091 </r>
        <r>  18.2756   0.0005   0.0630   0.0043   0.0184   0.0046   0.0021   0.0648   0.0006   0.0214 </r>
        <r>  18.3945   0.0058   0.1013   0.0108   0.0872   0.0104   0.0034   0.0795   0.0046   0.0222 </r>
        <r>  18.5133   0.0209   0.1129   0.0324   0.1457   0.0181   0.0067   0.1059   0.0116   0.0183 </r>
        <r>  18.6321   0.0312   0.0909   0.0546   0.0998   0.0114   0.0107   0.0936   0.0109   0.0113 </r>
        <r>  18.7510   0.0345   0.0399   0.0540   0.0672   0.0115   0.0134   0.0490   0.0130   0.0113 </r>
        <r>  18.8698   0.0488   0.0383   0.0595   0.0924   0.0212   0.0207   0.0163   0.0213   0.0249 </r>
        <r>  18.9887   0.0310   0.0224   0.0332   0.0379   0.0122   0.0131   0.0135   0.0133   0.0077 </r>
        <r>  19.1075   0.0602   0.0490   0.0498   0.0421   0.0237   0.0210   0.0315   0.0208   0.0006 </r>
        <r>  19.2263   0.0433   0.0623   0.0848   0.0546   0.0158   0.0313   0.0161   0.0270   0.0020 </r>
        <r>  19.3452   0.0487   0.0942   0.1833   0.0660   0.0070   0.0695   0.0316   0.0538   0.0059 </r>
        <r>  19.4640   0.0596   0.1683   0.1153   0.0751   0.0122   0.0604   0.0945   0.0346   0.0153 </r>
        <r>  19.5828   0.0186   0.0688   0.0377   0.0265   0.0049   0.0190   0.0612   0.0076   0.0101 </r>
        <r>  19.7017   0.0194   0.0417   0.0647   0.0376   0.0098   0.0176   0.0645   0.0121   0.0264 </r>
        <r>  19.8205   0.0100   0.0377   0.0291   0.0337   0.0097   0.0079   0.0448   0.0054   0.0274 </r>
        <r>  19.9393   0.0006   0.0303   0.0014   0.0298   0.0010   0.0006   0.0039   0.0004   0.0104 </r>
        <r>  20.0582   0.0004   0.0238   0.0056   0.0193   0.0001   0.0017   0.0067   0.0002   0.0059 </r>
        <r>  20.1770   0.0035   0.0356   0.0409   0.0126   0.0018   0.0116   0.0480   0.0026   0.0036 </r>
        <r>  20.2958   0.0088   0.0341   0.0371   0.0806   0.0111   0.0094   0.0382   0.0178   0.0046 </r>
        <r>  20.4147   0.0102   0.0322   0.0126   0.0957   0.0152   0.0032   0.0110   0.0180   0.0149 </r>
        <r>  20.5335   0.0326   0.1117   0.0449   0.1681   0.0384   0.0178   0.0404   0.0283   0.0545 </r>
        <r>  20.6524   0.0385   0.1192   0.0644   0.1636   0.0405   0.0298   0.0519   0.0332   0.0455 </r>
        <r>  20.7712   0.0161   0.0583   0.0198   0.1521   0.0468   0.0160   0.0142   0.0500   0.0120 </r>
        <r>  20.8900   0.0344   0.0701   0.0328   0.1435   0.0464   0.0226   0.0364   0.0466   0.0155 </r>
        <r>  21.0089   0.0302   0.0781   0.0269   0.0793   0.0165   0.0218   0.0361   0.0143   0.0207 </r>
        <r>  21.1277   0.0078   0.0160   0.0156   0.0150   0.0025   0.0046   0.0233   0.0027   0.0041 </r>
        <r>  21.2465   0.0295   0.0310   0.0782   0.0342   0.0050   0.0141   0.1066   0.0113   0.0033 </r>
        <r>  21.3654   0.0357   0.0416   0.0790   0.0637   0.0090   0.0183   0.0883   0.0202   0.0048 </r>
        <r>  21.4842   0.0117   0.0181   0.0290   0.0294   0.0061   0.0107   0.0223   0.0104   0.0139 </r>
        <r>  21.6030   0.0178   0.0286   0.0650   0.0587   0.0154   0.0234   0.0477   0.0201   0.0539 </r>
        <r>  21.7219   0.0102   0.0281   0.0281   0.0553   0.0093   0.0120   0.0263   0.0125   0.0361 </r>
        <r>  21.8407   0.0012   0.0603   0.0079   0.0644   0.0075   0.0130   0.0292   0.0083   0.0180 </r>
        <r>  21.9595   0.0043   0.0383   0.0238   0.0481   0.0098   0.0145   0.0380   0.0114   0.0087 </r>
        <r>  22.0784   0.0220   0.0533   0.1261   0.0874   0.0232   0.0470   0.1283   0.0392   0.0055 </r>
        <r>  22.1972   0.0308   0.0534   0.1470   0.0614   0.0286   0.0648   0.0992   0.0531   0.0081 </r>
        <r>  22.3161   0.0172   0.0231   0.0702   0.0299   0.0190   0.0396   0.0157   0.0387   0.0095 </r>
        <r>  22.4349   0.0018   0.0083   0.0145   0.0112   0.0054   0.0066   0.0066   0.0075   0.0045 </r>
        <r>  22.5537   0.0012   0.0432   0.0380   0.0404   0.0144   0.0144   0.0250   0.0183   0.0128 </r>
        <r>  22.6726   0.0015   0.0489   0.0200   0.0585   0.0141   0.0146   0.0165   0.0199   0.0136 </r>
        <r>  22.7914   0.0102   0.0681   0.0051   0.1552   0.0438   0.0113   0.0331   0.0209   0.0605 </r>
        <r>  22.9102   0.0157   0.0839   0.0137   0.1707   0.0430   0.0123   0.0391   0.0182   0.0733 </r>
        <r>  23.0291   0.0104   0.0213   0.0196   0.0871   0.0210   0.0069   0.0080   0.0112   0.0282 </r>
        <r>  23.1479   0.0041   0.0033   0.0086   0.0331   0.0082   0.0027   0.0006   0.0046   0.0094 </r>
        <r>  23.2667   0.0007   0.0010   0.0030   0.0081   0.0061   0.0029   0.0007   0.0069   0.0009 </r>
        <r>  23.3856   0.0044   0.0124   0.0289   0.0313   0.0291   0.0272   0.0081   0.0387   0.0054 </r>
        <r>  23.5044   0.0079   0.0470   0.0659   0.0602   0.0410   0.0327   0.0257   0.0519   0.0232 </r>
        <r>  23.6232   0.0166   0.0533   0.1002   0.0865   0.0386   0.0089   0.0896   0.0461   0.0199 </r>
        <r>  23.7421   0.0247   0.0149   0.1023   0.0369   0.0128   0.0042   0.1499   0.0151   0.0074 </r>
        <r>  23.8609   0.0226   0.0089   0.0691   0.0467   0.0220   0.0098   0.0945   0.0160   0.0155 </r>
        <r>  23.9798   0.0096   0.0066   0.0245   0.0170   0.0110   0.0098   0.0244   0.0111   0.0059 </r>
        <r>  24.0986   0.0038   0.0052   0.0207   0.0071   0.0055   0.0347   0.0039   0.0217   0.0020 </r>
        <r>  24.2174   0.0080   0.0128   0.0240   0.0449   0.0224   0.0373   0.0181   0.0185   0.0148 </r>
        <r>  24.3363   0.0110   0.0147   0.0328   0.0557   0.0236   0.0215   0.0227   0.0079   0.0238 </r>
        <r>  24.4551   0.0102   0.0149   0.0671   0.0390   0.0135   0.0121   0.0081   0.0113   0.0107 </r>
        <r>  24.5739   0.0039   0.0190   0.0235   0.0264   0.0073   0.0087   0.0024   0.0102   0.0026 </r>
[...]
       </set>
       <set comment="band 6">
        <r>  0.2105  0.0130  0.2150  0.0018  0.0001  0.2870  0.0892  0.0136  0.0061 </r>
       </set>
       <set comment="band 7">
        <r>  0.3285  0.0984  0.1209  0.0784  0.0364  0.0000  0.0001  0.0072  0.0430 </r>
       </set>
       <set comment="band 8">
        <r>  0.0651  0.0008  0.0645  0.3965  0.1006  0.0055  0.0375  0.0429  0.0105 </r>
       </set>
       <set comment="band 9">
        <r>  0.0110  0.2048  0.0732  0.0338  0.0071  0.0403  0.2748  0.0009  0.0342 </r>
       </set>
      </set>
      <set comment="kpoint 46">
       <set comment="band 1">
        <r>  0.0069  0.0430  0.0006  0.0002  0.0289  0.0002  0.6610  0.0001  0.0930 </r>
       </set>
       <set comment="band 2">
        <r>  0.0037  0.0043  0.0005  0.0614  0.7739  0.0069  0.0157  0.0034  0.0097 </r>
       </set>
       <set comment="band 3">
        <r>  0.0077  0.0004  0.0900  0.0008  0.0092  0.7595  0.0012  0.0051  0.0068 </r>
       </set>
       <set comment="band 4">
        <r>  0.0328  0.0020  0.0033  0.0012  0.0019  0.0087  0.1117  0.0028  0.7649 </r>
       </set>
       <set comment="band 5">
        <r>  0.0004  0.0000  0.0009  0.0010  0.0053  0.0118  0.0002  0.9634  0.0014 </r>
       </set>
       <set comment="band 6">
        <r>  0.4580  0.0002  0.1409  0.0091  0.0129  0.1074  0.0394  0.0075  0.0245 </r>
       </set>
       <set comment="band 7">
        <r>  0.1243  0.0317  0.2760  0.1098  0.0570  0.1018  0.0051  0.0004  0.0413 </r>
       </set>
       <set comment="band 8">
        <r>  0.1012  0.0076  0.0755  0.3554  0.1197  0.0233  0.0504  0.0093  0.0086 </r>
       </set>
       <set comment="band 9">
        <r>  0.0000  0.2493  0.0166  0.0456  0.0161  0.0089  0.2763  0.0001  0.0907 </r>
       </set>
      </set>
      <set comment="kpoint 47">
       <set comment="band 1">
        <r>  0.0143  0.0401  0.0019  0.0071  0.0000  0.0727  0.4198  0.0023  0.2796 </r>
       </set>
       <set comment="band 2">
        <r>  0.0142  0.0049  0.0494  0.0064  0.1051  0.5896  0.0703  0.0281  0.0089 </r>
       </set>
       <set comment="band 3">
        <r>  0.0446  0.0041  0.0113  0.0678  0.5810  0.1296  0.0090  0.0000  0.0235 </r>
       </set>
       <set comment="band 4">
        <r>  0.0072  0.0026  0.0010  0.0193  0.0303  0.0002  0.3078  0.0286  0.5359 </r>
       </set>
       <set comment="band 5">
        <r>  0.0018  0.0000  0.0059  0.0000  0.0169  0.0441  0.0085  0.8833  0.0137 </r>
       </set>
       <set comment="band 6">
        <r>  0.3148  0.0189  0.0016  0.1666  0.2344  0.0001  0.0272  0.0082  0.0484 </r>
       </set>
       <set comment="band 7">
        <r>  0.2205  0.0715  0.1593  0.1013  0.0048  0.0825  0.0852  0.0174  0.0013 </r>
       </set>
       <set comment="band 8">
        <r>  0.1027  0.0181  0.3352  0.0843  0.0083  0.1110  0.0327  0.0391  0.0158 </r>
       </set>
       <set comment="band 9">
        <r>  0.0147  0.1626  0.0059  0.1314  0.0533  0.0031  0.1713  0.0000  0.1449 </r>
       </set>
      </set>
      <set comment="kpoint 48">
       <set comment="band 1">
        <r>  0.0479  0.0007  0.0011  0.0007  0.2554  0.0004  0.5396  0.0004  0.0000 </r>
       </set>
       <set comment="band 2">
        <r>  0.0026  0.0216  0.0001  0.0216  0.6000  0.0005  0.2184  0.0005  0.0000 </r>
       </set>
       <set comment="band 3">
        <r>  0.0077  0.0000  0.1354  0.0000  0.0029  0.3678  0.0027  0.3678  0.0000 </r>
       </set>
       <set comment="band 4">
        <r>  0.0000  0.0054  0.0000  0.0054  0.0000  0.0327  0.0000  0.0327  0.8825 </r>
       </set>
       <set comment="band 5">
        <r>  0.0000  0.0000  0.0000  0.0000  0.0000  0.4569  0.0000  0.4569  0.0680 </r>
       </set>
       <set comment="band 6">
        <r>  0.0832  0.0011  0.4052  0.0011  0.0001  0.1333  0.0307  0.1333  0.0000 </r>
       </set>
       <set comment="band 7">
        <r>  0.4922  0.0597  0.0584  0.0597  0.0437  0.0012  0.0249  0.0012  0.0000 </r>
       </set>
       <set comment="band 8">
        <r>  0.0754  0.1546  0.0298  0.1546  0.0386  0.0073  0.2846  0.0073  0.0000 </r>
       </set>
       <set comment="band 9">
        <r>  0.0000  0.2612  0.0000  0.2612  0.0000  0.0018  0.0000  0.0018  0.0740 </r>
       </set>
      </set>
      <set comment="kpoint 49">
       <set comment="band 1">
        <r>  0.0343  0.0214  0.0011  0.0008  0.0942  0.0001  0.6689  0.0002  0.0133 </r>
       </set>
       <set comment="band 2">
        <r>  0.0003  0.0077  0.0000  0.0339  0.7533  0.0002  0.0788  0.0011  0.0028 </r>
       </set>
       <set comment="band 3">
        <r>  0.0095  0.0002  0.1140  0.0000  0.0010  0.7241  0.0006  0.0140  0.0200 </r>
       </set>
       <set comment="band 4">
        <r>  0.0116  0.0080  0.0056  0.0007  0.0001  0.0137  0.0195  0.0071  0.8788 </r>
       </set>
       <set comment="band 5">
        <r>  0.0004  0.0000  0.0007  0.0011  0.0022  0.0275  0.0000  0.9484  0.0044 </r>
       </set>
       <set comment="band 6">
        <r>  0.1357  0.0015  0.3753  0.0000  0.0002  0.2237  0.0372  0.0139  0.0003 </r>
       </set>
       <set comment="band 7">
        <r>  0.4960  0.0309  0.1039  0.0327  0.0199  0.0164  0.0320  0.0001  0.0342 </r>
       </set>
       <set comment="band 8">
        <r>  0.0374  0.0453  0.0178  0.3850  0.1009  0.0053  0.1195  0.0066  0.0002 </r>
       </set>
       <set comment="band 9">
        <r>  0.0001  0.2633  0.0053  0.1121  0.0218  0.0050  0.1940  0.0007  0.0680 </r>
       </set>
      </set>
      <set comment="kpoint 50">
       <set comment="band 1">
        <r>  0.0658  0.0003  0.0104  0.0003  0.3147  0.0052  0.4442  0.0052  0.0000 </r>
       </set>
       <set comment="band 2">
        <r>  0.0065  0.0219  0.0017  0.0219  0.5228  0.0036  0.2793  0.0036  0.0000 </r>
       </set>
       <set comment="band 3">
        <r>  0.0570  0.0001  0.1227  0.0001  0.0269  0.3164  0.0306  0.3164  0.0000 </r>
       </set>
       <set comment="band 4">
        <r>  0.0000  0.0060  0.0000  0.0060  0.0000  0.1432  0.0000  0.1432  0.6532 </r>
       </set>
       <set comment="band 5">
        <r>  0.0000  0.0001  0.0000  0.0001  0.0000  0.3414  0.0000  0.3414  0.3026 </r>
       </set>
       <set comment="band 6">
        <r>  0.1613  0.0108  0.2364  0.0108  0.0011  0.1591  0.0959  0.1591  0.0000 </r>
       </set>
       <set comment="band 7">
        <r>  0.3220  0.1102  0.0863  0.1102  0.0584  0.0060  0.0003  0.0060  0.0000 </r>
       </set>
       <set comment="band 8">
        <r>  0.0948  0.0822  0.1496  0.0822  0.0194  0.0253  0.2746  0.0253  0.0000 </r>
       </set>
       <set comment="band 9">
        <r>  0.0000  0.2564  0.0000  0.2565  0.0000  0.0156  0.0000  0.0156  0.0616 </r>
       </set>
      </set>
      <set comment="kpoint 51">
       <set comment="band 1">
        <r>  0.3863  0.0143  0.0143  0.0143  0.1137  0.1137  0.0000  0.1137  0.0000 </r>
       </set>
       <set comment="band 2">
        <r>  0.0000  0.0002  0.0002  0.0007  0.0840  0.3394  0.1060  0.0857  0.3224 </r>
       </set>
       <set comment="band 3">
        <r>  0.0000  0.0005  0.0005  0.0000  0.2555  0.0000  0.3224  0.2537  0.1060 </r>
       </set>
       <set comment="band 4">
        <r>  0.1192  0.0607  0.0607  0.0607  0.1650  0.1650  0.0000  0.1650  0.0000 </r>
       </set>
       <set comment="band 5">
        <r>  0.0000  0.0013  0.0014  0.0000  0.2249  0.0011  0.3985  0.2150  0.1224 </r>
       </set>
       <set comment="band 6">
        <r>  0.0000  0.0005  0.0004  0.0018  0.0691  0.2929  0.1224  0.0790  0.3985 </r>
       </set>
       <set comment="band 7">
        <r>  0.1971  0.0889  0.0889  0.0889  0.0812  0.0812  0.0000  0.0812  0.0000 </r>
       </set>
       <set comment="band 8">
        <r>  0.0003  0.0100  0.0100  0.0100  0.0237  0.0237  0.0000  0.0237  0.0000 </r>
       </set>
       <set comment="band 9">
        <r>  0.0000  0.0681  0.0884  0.3020  0.0337  0.1151  0.0003  0.0260  0.0009 </r>
       </set>
      </set>
      <set comment="kpoint 52">
       <set comment="band 1">
        <r>  0.2762  0.0229  0.0229  0.0008  0.1389  0.2017  0.0003  0.1389  0.0010 </r>
       </set>
       <set comment="band 2">
        <r>  0.0054  0.0000  0.0000  0.0101  0.1190  0.2879  0.0951  0.1190  0.2853 </r>
       </set>
       <set comment="band 3">
        <r>  0.0807  0.0604  0.0604  0.0520  0.1562  0.0020  0.0588  0.1562  0.1765 </r>
       </set>
       <set comment="band 4">
        <r>  0.0000  0.0006  0.0006  0.0000  0.1789  0.0000  0.4322  0.1789  0.1441 </r>
       </set>
       <set comment="band 5">
        <r>  0.0000  0.0013  0.0013  0.0000  0.2985  0.0000  0.2691  0.2985  0.0897 </r>
       </set>
       <set comment="band 6">
        <r>  0.0831  0.0318  0.0318  0.0081  0.0023  0.4464  0.0809  0.0023  0.2426 </r>
       </set>
       <set comment="band 7">
        <r>  0.2426  0.0816  0.0816  0.1011  0.0794  0.0621  0.0051  0.0794  0.0154 </r>
       </set>
       <set comment="band 8">
        <r>  0.0103  0.0103  0.0103  0.1908  0.0923  0.0126  0.0128  0.0923  0.0384 </r>
       </set>
       <set comment="band 9">
        <r>  0.0254  0.0811  0.0808  0.1101  0.0118  0.0003  0.0007  0.0118  0.0020 </r>
       </set>
      </set>
      <set comment="kpoint 53">
       <set comment="band 1">
        <r>  0.1389  0.0191  0.0191  0.0059  0.0426  0.5342  0.0129  0.0426  0.0386 </r>
       </set>
       <set comment="band 2">
        <r>  0.0074  0.0194  0.0194  0.0227  0.1482  0.0241  0.1187  0.1482  0.3562 </r>
       </set>
       <set comment="band 3">
        <r>  0.0249  0.0395  0.0395  0.0529  0.2083  0.0529  0.0533  0.2083  0.1598 </r>
       </set>
       <set comment="band 4">
        <r>  0.0000  0.0046  0.0046  0.0000  0.0418  0.0000  0.6313  0.0418  0.2104 </r>
       </set>
       <set comment="band 5">
        <r>  0.0000  0.0004  0.0004  0.0000  0.4382  0.0000  0.0624  0.4382  0.0208 </r>
       </set>
       <set comment="band 6">
        <r>  0.2509  0.0565  0.0565  0.0034  0.0001  0.3622  0.0337  0.0001  0.1012 </r>
       </set>
       <set comment="band 7">
        <r>  0.2338  0.0831  0.0831  0.1194  0.0584  0.0076  0.0268  0.0584  0.0803 </r>
       </set>
       <set comment="band 8">
        <r>  0.0591  0.0360  0.0360  0.3351  0.1152  0.0010  0.0149  0.1152  0.0448 </r>
       </set>
       <set comment="band 9">
        <r>  0.0192  0.0382  0.0372  0.0023  0.0000  0.1098  0.0197  0.0000  0.0603 </r>
       </set>
      </set>
      <set comment="kpoint 54">
       <set comment="band 1">
        <r>  0.0532  0.0008  0.0008  0.0017  0.0039  0.4928  0.0785  0.0039  0.2356 </r>
       </set>
       <set comment="band 2">
        <r>  0.0043  0.0509  0.0509  0.0005  0.0093  0.2517  0.1145  0.0093  0.3434 </r>
       </set>
       <set comment="band 3">
        <r>  0.0029  0.0016  0.0016  0.1128  0.3642  0.0304  0.0001  0.3642  0.0004 </r>
       </set>
       <set comment="band 4">
        <r>  0.0000  0.0065  0.0065  0.0000  0.0322  0.0000  0.6478  0.0322  0.2159 </r>
       </set>
       <set comment="band 5">
        <r>  0.0000  0.0002  0.0002  0.0000  0.4529  0.0000  0.0491  0.4529  0.0164 </r>
       </set>
       <set comment="band 6">
        <r>  0.4346  0.0706  0.0706  0.0023  0.0028  0.1754  0.0028  0.0028  0.0084 </r>
       </set>
       <set comment="band 7">
        <r>  0.0710  0.0348  0.0348  0.3331  0.1200  0.0034  0.0194  0.1200  0.0582 </r>
       </set>
       <set comment="band 8">
        <r>  0.1478  0.0862  0.0862  0.1445  0.0364  0.0082  0.0557  0.0364  0.1671 </r>
       </set>
       <set comment="band 9">
        <r>  0.0000  0.2476  0.2478  0.0000  0.0007  0.0000  0.1206  0.0007  0.0401 </r>
       </set>
      </set>
      <set comment="kpoint 55">
       <set comment="band 1">
        <r>  0.2153  0.0000  0.0277  0.0000  0.2614  0.1535  0.0162  0.1535  0.0000 </r>
       </set>
       <set comment="band 2">
        <r>  0.0002  0.0054  0.0000  0.0054  0.0769  0.0939  0.6322  0.0939  0.0000 </r>
       </set>
       <set comment="band 3">
        <r>  0.0000  0.0028  0.0000  0.0028  0.0000  0.2085  0.0000  0.2085  0.5136 </r>
       </set>
       <set comment="band 4">
        <r>  0.0646  0.0501  0.0589  0.0501  0.4911  0.0185  0.0746  0.0185  0.0000 </r>
       </set>
       <set comment="band 5">
        <r>  0.0000  0.0003  0.0000  0.0003  0.0000  0.2715  0.0000  0.2715  0.4388 </r>
       </set>
       <set comment="band 6">
        <r>  0.0985  0.0408  0.0947  0.0408  0.0389  0.1718  0.2013  0.1718  0.0000 </r>
       </set>
       <set comment="band 7">
        <r>  0.3044  0.0849  0.0522  0.0849  0.1054  0.0725  0.0064  0.0725  0.0000 </r>
       </set>
       <set comment="band 8">
        <r>  0.0029  0.0010  0.0492  0.0010  0.0314  0.0014  0.0894  0.0014  0.0000 </r>
       </set>
       <set comment="band 9">
        <r>  0.0000  0.2384  0.0000  0.2376  0.0000  0.0373  0.0000  0.0372  0.0446 </r>
       </set>
      </set>
      <set comment="kpoint 56">
       <set comment="band 1">
        <r>  0.1294  0.0020  0.0290  0.0153  0.3311  0.2198  0.0266  0.0938  0.0015 </r>
       </set>
       <set comment="band 2">
        <r>  0.0004  0.0230  0.0000  0.0014  0.0242  0.1486  0.5362  0.0032  0.1391 </r>
       </set>
       <set comment="band 3">
        <r>  0.0244  0.0310  0.0441  0.0487  0.3562  0.2365  0.0972  0.0141  0.0037 </r>
       </set>
       <set comment="band 4">
        <r>  0.0014  0.0039  0.0200  0.0009  0.0528  0.0000  0.0938  0.2364  0.5197 </r>
       </set>
       <set comment="band 5">
        <r>  0.0013  0.0005  0.0031  0.0025  0.0734  0.0824  0.0480  0.5386  0.2209 </r>
       </set>
       <set comment="band 6">
        <r>  0.1858  0.0491  0.1292  0.0326  0.0032  0.2756  0.1026  0.0250  0.0325 </r>
       </set>
       <set comment="band 7">
        <r>  0.3055  0.0658  0.0440  0.1226  0.1183  0.0168  0.0146  0.0628  0.0303 </r>
       </set>
       <set comment="band 8">
        <r>  0.0611  0.0418  0.0694  0.3088  0.0852  0.0002  0.0018  0.0584  0.0733 </r>
       </set>
       <set comment="band 9">
        <r>  0.0214  0.0547  0.1818  0.0000  0.0031  0.0589  0.2151  0.0034  0.0058 </r>
       </set>
      </set>
      <set comment="kpoint 57">
       <set comment="band 1">
        <r>  0.0243  0.0148  0.0046  0.0015  0.0025  0.2957  0.2568  0.0018  0.2585 </r>
       </set>
       <set comment="band 2">
        <r>  0.0194  0.0362  0.0530  0.0029  0.0431  0.4158  0.1998  0.0087  0.0689 </r>
       </set>
       <set comment="band 3">
        <r>  0.0014  0.0028  0.0053  0.0882  0.6734  0.0543  0.0006  0.0496  0.0043 </r>
       </set>
       <set comment="band 4">
        <r>  0.0141  0.0011  0.0087  0.0022  0.0003  0.0098  0.3684  0.0245  0.5049 </r>
       </set>
       <set comment="band 5">
        <r>  0.0019  0.0000  0.0001  0.0040  0.0976  0.0065  0.0081  0.8460  0.0106 </r>
       </set>
       <set comment="band 6">
        <r>  0.4453  0.0276  0.1098  0.0001  0.0035  0.1569  0.0350  0.0080  0.0017 </r>
       </set>
       <set comment="band 7">
        <r>  0.0653  0.0425  0.0616  0.3165  0.1539  0.0117  0.0275  0.0412  0.0537 </r>
       </set>
       <set comment="band 8">
        <r>  0.1486  0.0513  0.1315  0.1766  0.0573  0.0198  0.0219  0.0246  0.1318 </r>
       </set>
       <set comment="band 9">
        <r>  0.0127  0.1618  0.1956  0.0009  0.0015  0.0564  0.2333  0.0006  0.0142 </r>
       </set>
      </set>
      <set comment="kpoint 58">
       <set comment="band 1">
        <r>  0.0849  0.0023  0.0137  0.0023  0.5051  0.0447  0.1662  0.0447  0.0000 </r>
       </set>
       <set comment="band 2">
        <r>  0.0024  0.0361  0.0013  0.0361  0.0675  0.0532  0.5968  0.0532  0.0000 </r>
       </set>
       <set comment="band 3">
        <r>  0.0199  0.0129  0.0907  0.0129  0.2239  0.2524  0.0059  0.2524  0.0000 </r>
       </set>
       <set comment="band 4">
        <r>  0.0000  0.0054  0.0000  0.0054  0.0000  0.1269  0.0000  0.1269  0.6738 </r>
       </set>
       <set comment="band 5">
        <r>  0.0000  0.0002  0.0000  0.0002  0.0000  0.3575  0.0000  0.3575  0.2629 </r>
       </set>
       <set comment="band 6">
        <r>  0.0820  0.0646  0.2250  0.0646  0.0147  0.1083  0.1284  0.1083  0.0000 </r>
       </set>
       <set comment="band 7">
        <r>  0.4358  0.0638  0.0071  0.0638  0.1477  0.0322  0.0055  0.0322  0.0000 </r>
       </set>
       <set comment="band 8">
        <r>  0.0863  0.0540  0.2327  0.0540  0.0048  0.0459  0.1973  0.0459  0.0000 </r>
       </set>
       <set comment="band 9">
        <r>  0.0000  0.2462  0.0000  0.2463  0.0000  0.0064  0.0000  0.0064  0.1315 </r>
       </set>
      </set>
      <set comment="kpoint 59">
       <set comment="band 1">
        <r>  0.2223  0.0012  0.0012  0.0012  0.2028  0.2028  0.0000  0.2028  0.0000 </r>
       </set>
       <set comment="band 2">
        <r>  0.0000  0.0000  0.0000  0.0001  0.0652  0.2609  0.1354  0.0653  0.4066 </r>
       </set>
       <set comment="band 3">
        <r>  0.0000  0.0001  0.0001  0.0000  0.1957  0.0000  0.4066  0.1956  0.1354 </r>
       </set>
       <set comment="band 4">
        <r>  0.0815  0.1570  0.1570  0.1570  0.0326  0.0326  0.0000  0.0326  0.0000 </r>
       </set>
       <set comment="band 5">
        <r>  0.0000  0.0003  0.0004  0.0000  0.3049  0.0012  0.3228  0.2676  0.0821 </r>
       </set>
       <set comment="band 6">
        <r>  0.0000  0.0001  0.0001  0.0004  0.0776  0.3812  0.0821  0.1149  0.3228 </r>
       </set>
       <set comment="band 7">
        <r>  0.4004  0.0365  0.0365  0.0365  0.1146  0.1146  0.0000  0.1146  0.0000 </r>
       </set>
       <set comment="band 8">
        <r>  0.0001  0.0083  0.0083  0.0083  0.0022  0.0022  0.0000  0.0022  0.0000 </r>
       </set>
       <set comment="band 9">
        <r>  0.0000  0.0535  0.1030  0.3050  0.0044  0.0130  0.0002  0.0023  0.0003 </r>
       </set>
      </set>
      <set comment="kpoint 60">
       <set comment="band 1">
        <r>  0.1789  0.0045  0.0045  0.0096  0.1883  0.2676  0.0004  0.1883  0.0012 </r>
       </set>
       <set comment="band 2">
        <r>  0.0001  0.0041  0.0041  0.0007  0.0676  0.1768  0.1472  0.0676  0.4415 </r>
       </set>
       <set comment="band 3">
        <r>  0.0000  0.0016  0.0016  0.0000  0.1719  0.0000  0.4394  0.1719  0.1465 </r>
       </set>
       <set comment="band 4">
        <r>  0.0015  0.0635  0.0635  0.0649  0.1033  0.2580  0.0442  0.1033  0.1326 </r>
       </set>
       <set comment="band 5">
        <r>  0.0000  0.0003  0.0003  0.0000  0.3113  0.0000  0.2657  0.3113  0.0886 </r>
       </set>
       <set comment="band 6">
        <r>  0.0319  0.1208  0.1208  0.1155  0.0090  0.1924  0.0420  0.0090  0.1261 </r>
       </set>
       <set comment="band 7">
        <r>  0.4717  0.0053  0.0053  0.0308  0.1328  0.0912  0.0020  0.1328  0.0061 </r>
       </set>
       <set comment="band 8">
        <r>  0.0074  0.0030  0.0030  0.1189  0.0290  0.0110  0.0213  0.0290  0.0638 </r>
       </set>
       <set comment="band 9">
        <r>  0.0306  0.0803  0.0810  0.1853  0.0182  0.0300  0.0016  0.0182  0.0051 </r>
       </set>
      </set>
     </set>
    </set>
   </array>
  </projected>
 </calculation>
 <structure name="finalpos"">
  <crystal>
   <varray name="basis"">
    <v>       0.00000000      1.96195000      1.96195000</v>
    <v>       1.96195000      0.00000000      1.96195000</v>
    <v>       1.96195000      1.96195000      0.00000000</v>
   </varray>
   <i name="volume""     15.10406345</i>
   <varray name="rec_basis"">
    <v>      -0.25484849      0.25484849      0.25484849</v>
    <v>       0.25484849     -0.25484849      0.25484849</v>
    <v>       0.25484849      0.25484849     -0.25484849</v>
   </varray>
  </crystal>
  <varray name="positions"">
   <v>       0.00000000      0.00000000      0.00000000</v>
  </varray>
 </structure>
</modeling>
