    2    2   20    1
  0.5000000E+03  0.1000000E-08  0.1000000E-08  0.1000000E-08  0.1000000E-15
  1.000000000000000E-004
  CAR 
 N2                                      
   10    1    9
 
  0.0000000E+00  0.0000000E+00  0.0000000E+00  0.1000000E+01
   1      -28.1613
   2      -13.4565
   3      -11.4890
   4      -11.4890
   5      -10.1364
   6       -2.0489
   7       -2.0489
   8       -0.1610
   9        1.1210
