       N       E                     dE             d eps       ncg     rms          rms(c)
DAV:   1     0.764555284612E+02    0.76456E+02   -0.17228E+03    18   0.461E+02
DAV:   2    -0.524956156047E+01   -0.81705E+02   -0.81705E+02    36   0.121E+02
DAV:   3    -0.165699468648E+02   -0.11320E+02   -0.11320E+02    36   0.637E+01
DAV:   4    -0.166499825924E+02   -0.80036E-01   -0.80036E-01    27   0.549E+00
DAV:   5    -0.166500608840E+02   -0.78292E-04   -0.78292E-04    27   0.170E-01    0.502E+00
RMM:   6    -0.162872837961E+02    0.36278E+00   -0.42007E-01    18   0.479E+00    0.274E+00
RMM:   7    -0.161854108312E+02    0.10187E+00   -0.41902E-01    18   0.462E+00    0.585E-01
RMM:   8    -0.161803166700E+02    0.50942E-02   -0.18454E-02    18   0.124E+00    0.441E-02
RMM:   9    -0.161810943288E+02   -0.77766E-03   -0.64191E-04    16   0.201E-01    0.291E-02
RMM:  10    -0.161832443102E+02   -0.21500E-02   -0.12874E-03    17   0.283E-01    0.257E-02
RMM:  11    -0.161833797012E+02   -0.13539E-03   -0.50959E-05    13   0.460E-02    0.125E-02
RMM:  12    -0.161841232234E+02   -0.74352E-03   -0.37582E-04    14   0.133E-01    0.110E-02
RMM:  13    -0.161842642454E+02   -0.14102E-03   -0.40795E-05    13   0.467E-02    0.566E-03
RMM:  14    -0.161844062952E+02   -0.14205E-03   -0.49461E-05    12   0.458E-02    0.637E-03
RMM:  15    -0.161844244957E+02   -0.18200E-04   -0.92176E-06     9   0.179E-02
   1 F= -.16184424E+02 E0= -.16184424E+02  d E =-.161844E+02
       N       E                     dE             d eps       ncg     rms          rms(c)
DAV:   1    -0.160933883007E+02   -0.16093E+02   -0.90551E+01    18   0.951E+01    0.306E+00
RMM:   2    -0.159468898026E+02    0.14650E+00   -0.11075E+00    18   0.982E+00    0.193E+00
RMM:   3    -0.158620804749E+02    0.84809E-01   -0.79142E-01    18   0.667E+00    0.674E-01
RMM:   4    -0.158479134039E+02    0.14167E-01   -0.53212E-02    18   0.190E+00    0.262E-01
RMM:   5    -0.158489448813E+02   -0.10315E-02   -0.56869E-03    18   0.578E-01    0.145E-01
RMM:   6    -0.158482318650E+02    0.71302E-03   -0.23304E-03    18   0.380E-01    0.166E-02
RMM:   7    -0.158489462394E+02   -0.71437E-03   -0.21123E-04    14   0.105E-01    0.791E-03
RMM:   8    -0.158490740085E+02   -0.12777E-03   -0.23847E-05    12   0.324E-02    0.566E-03
RMM:   9    -0.158493246927E+02   -0.25068E-03   -0.72459E-05    13   0.612E-02    0.351E-03
RMM:  10    -0.158493461346E+02   -0.21442E-04   -0.15485E-05    12   0.231E-02
   2 F= -.15849346E+02 E0= -.15849346E+02  d E =0.335078E+00
       N       E                     dE             d eps       ncg     rms          rms(c)
DAV:   1    -0.167576262011E+02   -0.16758E+02   -0.24032E+01    18   0.495E+01    0.193E+00
RMM:   2    -0.166728404920E+02    0.84786E-01   -0.28136E-01    18   0.483E+00    0.932E-01
RMM:   3    -0.166527738645E+02    0.20067E-01   -0.14110E-01    18   0.272E+00    0.224E-01
RMM:   4    -0.166526523458E+02    0.12152E-03   -0.28122E-03    18   0.480E-01    0.102E-01
RMM:   5    -0.166524939405E+02    0.15841E-03   -0.46729E-04    17   0.214E-01    0.360E-02
RMM:   6    -0.166524995532E+02   -0.56127E-05   -0.24688E-04    14   0.128E-01
   3 F= -.16652500E+02 E0= -.16652500E+02  d E =-.468075E+00
