   8   8   1   0
  0.9335286E+01  0.4211200E-09  0.4211200E-09  0.4211200E-09  0.5000000E-15
  1.000000000000000E-004
  CAR 
 Au, FCC                                 
     17.86050482    -13.28788692  301      4.98908086      1.00000000
    -13.288  0.0000E+00  0.0000E+00
    -13.184  0.0000E+00  0.0000E+00
    -13.080  0.0000E+00  0.0000E+00
    -12.976  0.0000E+00  0.0000E+00
    -12.873  0.0000E+00  0.0000E+00
    -12.769  0.0000E+00  0.0000E+00
    -12.665  0.0000E+00  0.0000E+00
    -12.561  0.0000E+00  0.0000E+00
    -12.457  0.1069E-14  0.1110E-15
    -12.353  0.9545E-10  0.9910E-11
    -12.250  0.8978E-06  0.9323E-07
    -12.146  0.1043E-02  0.1083E-03
    -12.042  0.1557E+00  0.1627E-01
    -11.938  0.3215E+01  0.3501E+00
    -11.834  0.1018E+02  0.1407E+01
    -11.730  0.5279E+01  0.1955E+01
    -11.627  0.4308E+00  0.1999E+01
    -11.523  0.4993E-02  0.2000E+01
    -11.419  0.1482E-04  0.2000E+01
    -11.315  0.6510E-02  0.2001E+01
    -11.211  0.7565E+00  0.2079E+01
    -11.107  0.1230E+02  0.3356E+01
    -11.004  0.3104E+02  0.6579E+01
    -10.900  0.1285E+02  0.7913E+01
    -10.796  0.8275E+00  0.7999E+01
    -10.692  0.7474E-02  0.8000E+01
    -10.588  0.8753E-05  0.8000E+01
    -10.485  0.1271E-08  0.8000E+01
    -10.381  0.2566E-13  0.8000E+01
    -10.277  0.0000E+00  0.8000E+01
    -10.173  0.0000E+00  0.8000E+01
    -10.069  0.0000E+00  0.8000E+01
     -9.965  0.0000E+00  0.8000E+01
     -9.862  0.0000E+00  0.8000E+01
     -9.758  0.0000E+00  0.8000E+01
     -9.654  0.0000E+00  0.8000E+01
     -9.550  0.0000E+00  0.8000E+01
     -9.446  0.0000E+00  0.8000E+01
     -9.342  0.0000E+00  0.8000E+01
     -9.239  0.0000E+00  0.8000E+01
     -9.135  0.0000E+00  0.8000E+01
     -9.031  0.0000E+00  0.8000E+01
     -8.927  0.0000E+00  0.8000E+01
     -8.823  0.0000E+00  0.8000E+01
     -8.719  0.0000E+00  0.8000E+01
     -8.616  0.0000E+00  0.8000E+01
     -8.512  0.0000E+00  0.8000E+01
     -8.408  0.0000E+00  0.8000E+01
     -8.304  0.0000E+00  0.8000E+01
     -8.200  0.0000E+00  0.8000E+01
     -8.096  0.0000E+00  0.8000E+01
     -7.993  0.0000E+00  0.8000E+01
     -7.889  0.0000E+00  0.8000E+01
     -7.785  0.0000E+00  0.8000E+01
     -7.681  0.0000E+00  0.8000E+01
     -7.577  0.0000E+00  0.8000E+01
     -7.474  0.0000E+00  0.8000E+01
     -7.370  0.0000E+00  0.8000E+01
     -7.266  0.0000E+00  0.8000E+01
     -7.162  0.0000E+00  0.8000E+01
     -7.058  0.0000E+00  0.8000E+01
     -6.954  0.0000E+00  0.8000E+01
     -6.851  0.0000E+00  0.8000E+01
     -6.747  0.0000E+00  0.8000E+01
     -6.643  0.0000E+00  0.8000E+01
     -6.539  0.0000E+00  0.8000E+01
     -6.435  0.0000E+00  0.8000E+01
     -6.331  0.0000E+00  0.8000E+01
     -6.228  0.0000E+00  0.8000E+01
     -6.124  0.0000E+00  0.8000E+01
     -6.020  0.0000E+00  0.8000E+01
     -5.916  0.0000E+00  0.8000E+01
     -5.812  0.0000E+00  0.8000E+01
     -5.708  0.0000E+00  0.8000E+01
     -5.605  0.0000E+00  0.8000E+01
     -5.501  0.0000E+00  0.8000E+01
     -5.397  0.0000E+00  0.8000E+01
     -5.293  0.0000E+00  0.8000E+01
     -5.189  0.0000E+00  0.8000E+01
     -5.085  0.0000E+00  0.8000E+01
     -4.982  0.0000E+00  0.8000E+01
     -4.878  0.0000E+00  0.8000E+01
     -4.774  0.0000E+00  0.8000E+01
     -4.670  0.0000E+00  0.8000E+01
     -4.566  0.0000E+00  0.8000E+01
     -4.463  0.0000E+00  0.8000E+01
     -4.359  0.0000E+00  0.8000E+01
     -4.255  0.0000E+00  0.8000E+01
     -4.151  0.0000E+00  0.8000E+01
     -4.047  0.0000E+00  0.8000E+01
     -3.943  0.0000E+00  0.8000E+01
     -3.840  0.0000E+00  0.8000E+01
     -3.736  0.0000E+00  0.8000E+01
     -3.632  0.0000E+00  0.8000E+01
     -3.528  0.0000E+00  0.8000E+01
     -3.424  0.0000E+00  0.8000E+01
     -3.320  0.0000E+00  0.8000E+01
     -3.217  0.0000E+00  0.8000E+01
     -3.113  0.0000E+00  0.8000E+01
     -3.009  0.0000E+00  0.8000E+01
     -2.905  0.0000E+00  0.8000E+01
     -2.801  0.0000E+00  0.8000E+01
     -2.697  0.0000E+00  0.8000E+01
     -2.594  0.0000E+00  0.8000E+01
     -2.490  0.0000E+00  0.8000E+01
     -2.386  0.0000E+00  0.8000E+01
     -2.282  0.0000E+00  0.8000E+01
     -2.178  0.0000E+00  0.8000E+01
     -2.074  0.0000E+00  0.8000E+01
     -1.971  0.0000E+00  0.8000E+01
     -1.867  0.0000E+00  0.8000E+01
     -1.763  0.0000E+00  0.8000E+01
     -1.659  0.0000E+00  0.8000E+01
     -1.555  0.0000E+00  0.8000E+01
     -1.451  0.0000E+00  0.8000E+01
     -1.348  0.0000E+00  0.8000E+01
     -1.244  0.0000E+00  0.8000E+01
     -1.140  0.0000E+00  0.8000E+01
     -1.036  0.0000E+00  0.8000E+01
     -0.932  0.0000E+00  0.8000E+01
     -0.829  0.0000E+00  0.8000E+01
     -0.725  0.0000E+00  0.8000E+01
     -0.621  0.0000E+00  0.8000E+01
     -0.517  0.0000E+00  0.8000E+01
     -0.413  0.0000E+00  0.8000E+01
     -0.309  0.0000E+00  0.8000E+01
     -0.206  0.0000E+00  0.8000E+01
     -0.102  0.0000E+00  0.8000E+01
      0.002  0.0000E+00  0.8000E+01
      0.106  0.0000E+00  0.8000E+01
      0.210  0.0000E+00  0.8000E+01
      0.314  0.0000E+00  0.8000E+01
      0.417  0.1091E-12  0.8000E+01
      0.521  0.4688E-08  0.8000E+01
      0.625  0.2436E-04  0.8000E+01
      0.729  0.1578E-01  0.8002E+01
      0.833  0.1336E+01  0.8140E+01
      0.937  0.1607E+02  0.9809E+01
      1.040  0.3045E+02  0.1297E+02
      1.144  0.9457E+01  0.1395E+02
      1.248  0.4496E+00  0.1400E+02
      1.352  0.2954E-02  0.1400E+02
      1.456  0.2494E-05  0.1400E+02
      1.560  0.2599E-09  0.1400E+02
      1.663  0.1814E-08  0.1400E+02
      1.767  0.9127E-05  0.1400E+02
      1.871  0.5723E-02  0.1400E+02
      1.975  0.4697E+00  0.1405E+02
      2.079  0.5487E+01  0.1462E+02
      2.182  0.1011E+02  0.1567E+02
      2.286  0.3051E+01  0.1599E+02
      2.390  0.1407E+00  0.1600E+02
      2.494  0.9023E-03  0.1600E+02
      2.598  0.5979E-02  0.1600E+02
      2.702  0.7156E+00  0.1607E+02
      2.805  0.1197E+02  0.1732E+02
      2.909  0.3102E+02  0.2054E+02
      3.013  0.1319E+02  0.2191E+02
      3.117  0.8738E+00  0.2200E+02
      3.221  0.8130E-02  0.2200E+02
      3.325  0.9856E-05  0.2200E+02
      3.428  0.1270E-03  0.2200E+02
      3.532  0.5155E-01  0.2201E+02
      3.636  0.2778E+01  0.2229E+02
      3.740  0.2179E+02  0.2456E+02
      3.844  0.2739E+02  0.2740E+02
      3.948  0.5604E+01  0.2798E+02
      4.051  0.1714E+00  0.2800E+02
      4.155  0.3495E-02  0.2800E+02
      4.259  0.3770E+00  0.2804E+02
      4.363  0.7093E+01  0.2878E+02
      4.467  0.2055E+02  0.3091E+02
      4.571  0.9766E+01  0.3192E+02
      4.674  0.7269E+00  0.3200E+02
      4.778  0.7646E-02  0.3200E+02
      4.882  0.1048E-04  0.3200E+02
      4.986  0.1785E-08  0.3200E+02
      5.090  0.3422E-13  0.3200E+02
      5.193  0.0000E+00  0.3200E+02
      5.297  0.0000E+00  0.3200E+02
      5.401  0.0000E+00  0.3200E+02
      5.505  0.0000E+00  0.3200E+02
      5.609  0.0000E+00  0.3200E+02
      5.713  0.0000E+00  0.3200E+02
      5.816  0.0000E+00  0.3200E+02
      5.920  0.0000E+00  0.3200E+02
      6.024  0.0000E+00  0.3200E+02
      6.128  0.0000E+00  0.3200E+02
      6.232  0.0000E+00  0.3200E+02
      6.336  0.0000E+00  0.3200E+02
      6.439  0.0000E+00  0.3200E+02
      6.543  0.0000E+00  0.3200E+02
      6.647  0.0000E+00  0.3200E+02
      6.751  0.0000E+00  0.3200E+02
      6.855  0.0000E+00  0.3200E+02
      6.959  0.0000E+00  0.3200E+02
      7.062  0.0000E+00  0.3200E+02
      7.166  0.0000E+00  0.3200E+02
      7.270  0.0000E+00  0.3200E+02
      7.374  0.0000E+00  0.3200E+02
      7.478  0.0000E+00  0.3200E+02
      7.582  0.0000E+00  0.3200E+02
      7.685  0.0000E+00  0.3200E+02
      7.789  0.0000E+00  0.3200E+02
      7.893  0.0000E+00  0.3200E+02
      7.997  0.0000E+00  0.3200E+02
      8.101  0.0000E+00  0.3200E+02
      8.205  0.0000E+00  0.3200E+02
      8.308  0.0000E+00  0.3200E+02
      8.412  0.0000E+00  0.3200E+02
      8.516  0.0000E+00  0.3200E+02
      8.620  0.0000E+00  0.3200E+02
      8.724  0.0000E+00  0.3200E+02
      8.827  0.0000E+00  0.3200E+02
      8.931  0.0000E+00  0.3200E+02
      9.035  0.0000E+00  0.3200E+02
      9.139  0.0000E+00  0.3200E+02
      9.243  0.0000E+00  0.3200E+02
      9.347  0.0000E+00  0.3200E+02
      9.450  0.0000E+00  0.3200E+02
      9.554  0.0000E+00  0.3200E+02
      9.658  0.0000E+00  0.3200E+02
      9.762  0.0000E+00  0.3200E+02
      9.866  0.0000E+00  0.3200E+02
      9.970  0.0000E+00  0.3200E+02
     10.073  0.0000E+00  0.3200E+02
     10.177  0.0000E+00  0.3200E+02
     10.281  0.0000E+00  0.3200E+02
     10.385  0.0000E+00  0.3200E+02
     10.489  0.0000E+00  0.3200E+02
     10.593  0.0000E+00  0.3200E+02
     10.696  0.0000E+00  0.3200E+02
     10.800  0.0000E+00  0.3200E+02
     10.904  0.0000E+00  0.3200E+02
     11.008  0.0000E+00  0.3200E+02
     11.112  0.0000E+00  0.3200E+02
     11.216  0.0000E+00  0.3200E+02
     11.319  0.1069E-14  0.3200E+02
     11.423  0.7584E-10  0.3200E+02
     11.527  0.7480E-06  0.3200E+02
     11.631  0.9101E-03  0.3200E+02
     11.735  0.1422E+00  0.3201E+02
     11.838  0.3067E+01  0.3233E+02
     11.942  0.1012E+02  0.3338E+02
     12.046  0.5466E+01  0.3395E+02
     12.150  0.4655E+00  0.3400E+02
     12.254  0.5643E-02  0.3400E+02
     12.358  0.8952E-05  0.3400E+02
     12.461  0.1770E-08  0.3400E+02
     12.565  0.4277E-13  0.3400E+02
     12.669  0.0000E+00  0.3400E+02
     12.773  0.0000E+00  0.3400E+02
     12.877  0.0000E+00  0.3400E+02
     12.981  0.0000E+00  0.3400E+02
     13.084  0.0000E+00  0.3400E+02
     13.188  0.0000E+00  0.3400E+02
     13.292  0.0000E+00  0.3400E+02
     13.396  0.0000E+00  0.3400E+02
     13.500  0.0000E+00  0.3400E+02
     13.604  0.0000E+00  0.3400E+02
     13.707  0.0000E+00  0.3400E+02
     13.811  0.0000E+00  0.3400E+02
     13.915  0.0000E+00  0.3400E+02
     14.019  0.1633E-10  0.3400E+02
     14.123  0.2730E-06  0.3400E+02
     14.227  0.5596E-03  0.3400E+02
     14.330  0.1455E+00  0.3402E+02
     14.434  0.5107E+01  0.3455E+02
     14.538  0.2670E+02  0.3732E+02
     14.642  0.2268E+02  0.3967E+02
     14.746  0.3096E+01  0.3999E+02
     14.849  0.6173E-01  0.4000E+02
     14.953  0.1639E-03  0.4000E+02
     15.057  0.5478E-07  0.4000E+02
     15.161  0.2231E-11  0.4000E+02
     15.265  0.0000E+00  0.4000E+02
     15.369  0.0000E+00  0.4000E+02
     15.472  0.0000E+00  0.4000E+02
     15.576  0.0000E+00  0.4000E+02
     15.680  0.0000E+00  0.4000E+02
     15.784  0.0000E+00  0.4000E+02
     15.888  0.3315E-13  0.4000E+02
     15.992  0.1426E-08  0.4000E+02
     16.095  0.7562E-05  0.4000E+02
     16.199  0.4993E-02  0.4000E+02
     16.303  0.4308E+00  0.4005E+02
     16.407  0.5279E+01  0.4059E+02
     16.511  0.1018E+02  0.4165E+02
     16.615  0.3215E+01  0.4198E+02
     16.718  0.1557E+00  0.4200E+02
     16.822  0.1043E-02  0.4200E+02
     16.926  0.8978E-06  0.4200E+02
     17.030  0.9545E-10  0.4200E+02
     17.134  0.0000E+00  0.4200E+02
     17.238  0.0000E+00  0.4200E+02
     17.341  0.0000E+00  0.4200E+02
     17.445  0.0000E+00  0.4200E+02
     17.549  0.0000E+00  0.4200E+02
     17.653  0.0000E+00  0.4200E+02
     17.757  0.0000E+00  0.4200E+02
     17.861  0.0000E+00  0.4200E+02
     17.86050482    -13.28788692  301      4.98908086      1.00000000
    -13.288  0.0000E+00  0.0000E+00  0.0000E+00  0.0000E+00  0.0000E+00  0.0000E+00  0.0000E+00  0.0000E+00  0.0000E+00
    -13.184  0.0000E+00  0.0000E+00  0.0000E+00  0.0000E+00  0.0000E+00  0.0000E+00  0.0000E+00  0.0000E+00  0.0000E+00
    -13.080  0.0000E+00  0.0000E+00  0.0000E+00  0.0000E+00  0.0000E+00  0.0000E+00  0.0000E+00  0.0000E+00  0.0000E+00
    -12.976  0.0000E+00  0.0000E+00  0.0000E+00  0.0000E+00  0.0000E+00  0.0000E+00  0.0000E+00  0.0000E+00  0.0000E+00
    -12.873  0.0000E+00  0.0000E+00  0.0000E+00  0.0000E+00  0.0000E+00  0.0000E+00  0.0000E+00  0.0000E+00  0.0000E+00
    -12.769  0.0000E+00  0.0000E+00  0.0000E+00  0.0000E+00  0.0000E+00  0.0000E+00  0.0000E+00  0.0000E+00  0.0000E+00
    -12.665  0.0000E+00  0.0000E+00  0.0000E+00  0.0000E+00  0.0000E+00  0.0000E+00  0.0000E+00  0.0000E+00  0.0000E+00
    -12.561  0.0000E+00  0.0000E+00  0.0000E+00  0.0000E+00  0.0000E+00  0.0000E+00  0.0000E+00  0.0000E+00  0.0000E+00
    -12.457  0.6454E-17  0.7227E-18  0.7227E-18  0.7227E-18  0.0000E+00  0.0000E+00  0.0000E+00  0.0000E+00  0.0000E+00
    -12.353  0.5761E-12  0.6451E-13  0.6451E-13  0.6451E-13  0.0000E+00  0.0000E+00  0.0000E+00  0.0000E+00  0.0000E+00
    -12.250  0.5419E-08  0.6068E-09  0.6068E-09  0.6068E-09  0.0000E+00  0.0000E+00  0.0000E+00  0.0000E+00  0.0000E+00
    -12.146  0.6293E-05  0.7047E-06  0.7047E-06  0.7047E-06  0.0000E+00  0.0000E+00  0.0000E+00  0.0000E+00  0.0000E+00
    -12.042  0.9397E-03  0.1052E-03  0.1052E-03  0.1052E-03  0.0000E+00  0.0000E+00  0.0000E+00  0.0000E+00  0.0000E+00
    -11.938  0.1941E-01  0.2173E-02  0.2173E-02  0.2173E-02  0.0000E+00  0.0000E+00  0.0000E+00  0.0000E+00  0.0000E+00
    -11.834  0.6142E-01  0.6877E-02  0.6877E-02  0.6877E-02  0.0000E+00  0.0000E+00  0.0000E+00  0.0000E+00  0.0000E+00
    -11.730  0.3187E-01  0.3568E-02  0.3568E-02  0.3568E-02  0.0000E+00  0.0000E+00  0.0000E+00  0.0000E+00  0.0000E+00
    -11.627  0.2601E-02  0.2912E-03  0.2912E-03  0.2912E-03  0.0000E+00  0.0000E+00  0.0000E+00  0.0000E+00  0.0000E+00
    -11.523  0.3014E-04  0.3375E-05  0.3375E-05  0.3375E-05  0.0000E+00  0.0000E+00  0.0000E+00  0.0000E+00  0.0000E+00
    -11.419  0.5082E-07  0.1064E-07  0.1064E-07  0.1064E-07  0.0000E+00  0.0000E+00  0.0000E+00  0.0000E+00  0.0000E+00
    -11.315  0.4646E-05  0.4965E-05  0.4965E-05  0.4965E-05  0.0000E+00  0.0000E+00  0.0000E+00  0.0000E+00  0.0000E+00
    -11.211  0.5399E-03  0.5769E-03  0.5769E-03  0.5769E-03  0.0000E+00  0.0000E+00  0.0000E+00  0.0000E+00  0.0000E+00
    -11.107  0.8780E-02  0.9381E-02  0.9381E-02  0.9381E-02  0.0000E+00  0.0000E+00  0.0000E+00  0.0000E+00  0.0000E+00
    -11.004  0.2215E-01  0.2367E-01  0.2367E-01  0.2367E-01  0.0000E+00  0.0000E+00  0.0000E+00  0.0000E+00  0.0000E+00
    -10.900  0.9172E-02  0.9800E-02  0.9800E-02  0.9800E-02  0.0000E+00  0.0000E+00  0.0000E+00  0.0000E+00  0.0000E+00
    -10.796  0.5906E-03  0.6310E-03  0.6310E-03  0.6310E-03  0.0000E+00  0.0000E+00  0.0000E+00  0.0000E+00  0.0000E+00
    -10.692  0.5334E-05  0.5699E-05  0.5699E-05  0.5699E-05  0.0000E+00  0.0000E+00  0.0000E+00  0.0000E+00  0.0000E+00
    -10.588  0.6247E-08  0.6675E-08  0.6675E-08  0.6675E-08  0.0000E+00  0.0000E+00  0.0000E+00  0.0000E+00  0.0000E+00
    -10.485  0.9074E-12  0.9696E-12  0.9696E-12  0.9696E-12  0.0000E+00  0.0000E+00  0.0000E+00  0.0000E+00  0.0000E+00
    -10.381  0.1832E-16  0.1957E-16  0.1957E-16  0.1957E-16  0.0000E+00  0.0000E+00  0.0000E+00  0.0000E+00  0.0000E+00
    -10.277  0.0000E+00  0.0000E+00  0.0000E+00  0.0000E+00  0.0000E+00  0.0000E+00  0.0000E+00  0.0000E+00  0.0000E+00
    -10.173  0.0000E+00  0.0000E+00  0.0000E+00  0.0000E+00  0.0000E+00  0.0000E+00  0.0000E+00  0.0000E+00  0.0000E+00
    -10.069  0.0000E+00  0.0000E+00  0.0000E+00  0.0000E+00  0.0000E+00  0.0000E+00  0.0000E+00  0.0000E+00  0.0000E+00
     -9.965  0.0000E+00  0.0000E+00  0.0000E+00  0.0000E+00  0.0000E+00  0.0000E+00  0.0000E+00  0.0000E+00  0.0000E+00
     -9.862  0.0000E+00  0.0000E+00  0.0000E+00  0.0000E+00  0.0000E+00  0.0000E+00  0.0000E+00  0.0000E+00  0.0000E+00
     -9.758  0.0000E+00  0.0000E+00  0.0000E+00  0.0000E+00  0.0000E+00  0.0000E+00  0.0000E+00  0.0000E+00  0.0000E+00
     -9.654  0.0000E+00  0.0000E+00  0.0000E+00  0.0000E+00  0.0000E+00  0.0000E+00  0.0000E+00  0.0000E+00  0.0000E+00
     -9.550  0.0000E+00  0.0000E+00  0.0000E+00  0.0000E+00  0.0000E+00  0.0000E+00  0.0000E+00  0.0000E+00  0.0000E+00
     -9.446  0.0000E+00  0.0000E+00  0.0000E+00  0.0000E+00  0.0000E+00  0.0000E+00  0.0000E+00  0.0000E+00  0.0000E+00
     -9.342  0.0000E+00  0.0000E+00  0.0000E+00  0.0000E+00  0.0000E+00  0.0000E+00  0.0000E+00  0.0000E+00  0.0000E+00
     -9.239  0.0000E+00  0.0000E+00  0.0000E+00  0.0000E+00  0.0000E+00  0.0000E+00  0.0000E+00  0.0000E+00  0.0000E+00
     -9.135  0.0000E+00  0.0000E+00  0.0000E+00  0.0000E+00  0.0000E+00  0.0000E+00  0.0000E+00  0.0000E+00  0.0000E+00
     -9.031  0.0000E+00  0.0000E+00  0.0000E+00  0.0000E+00  0.0000E+00  0.0000E+00  0.0000E+00  0.0000E+00  0.0000E+00
     -8.927  0.0000E+00  0.0000E+00  0.0000E+00  0.0000E+00  0.0000E+00  0.0000E+00  0.0000E+00  0.0000E+00  0.0000E+00
     -8.823  0.0000E+00  0.0000E+00  0.0000E+00  0.0000E+00  0.0000E+00  0.0000E+00  0.0000E+00  0.0000E+00  0.0000E+00
     -8.719  0.0000E+00  0.0000E+00  0.0000E+00  0.0000E+00  0.0000E+00  0.0000E+00  0.0000E+00  0.0000E+00  0.0000E+00
     -8.616  0.0000E+00  0.0000E+00  0.0000E+00  0.0000E+00  0.0000E+00  0.0000E+00  0.0000E+00  0.0000E+00  0.0000E+00
     -8.512  0.0000E+00  0.0000E+00  0.0000E+00  0.0000E+00  0.0000E+00  0.0000E+00  0.0000E+00  0.0000E+00  0.0000E+00
     -8.408  0.0000E+00  0.0000E+00  0.0000E+00  0.0000E+00  0.0000E+00  0.0000E+00  0.0000E+00  0.0000E+00  0.0000E+00
     -8.304  0.0000E+00  0.0000E+00  0.0000E+00  0.0000E+00  0.0000E+00  0.0000E+00  0.0000E+00  0.0000E+00  0.0000E+00
     -8.200  0.0000E+00  0.0000E+00  0.0000E+00  0.0000E+00  0.0000E+00  0.0000E+00  0.0000E+00  0.0000E+00  0.0000E+00
     -8.096  0.0000E+00  0.0000E+00  0.0000E+00  0.0000E+00  0.0000E+00  0.0000E+00  0.0000E+00  0.0000E+00  0.0000E+00
     -7.993  0.0000E+00  0.0000E+00  0.0000E+00  0.0000E+00  0.0000E+00  0.0000E+00  0.0000E+00  0.0000E+00  0.0000E+00
     -7.889  0.0000E+00  0.0000E+00  0.0000E+00  0.0000E+00  0.0000E+00  0.0000E+00  0.0000E+00  0.0000E+00  0.0000E+00
     -7.785  0.0000E+00  0.0000E+00  0.0000E+00  0.0000E+00  0.0000E+00  0.0000E+00  0.0000E+00  0.0000E+00  0.0000E+00
     -7.681  0.0000E+00  0.0000E+00  0.0000E+00  0.0000E+00  0.0000E+00  0.0000E+00  0.0000E+00  0.0000E+00  0.0000E+00
     -7.577  0.0000E+00  0.0000E+00  0.0000E+00  0.0000E+00  0.0000E+00  0.0000E+00  0.0000E+00  0.0000E+00  0.0000E+00
     -7.474  0.0000E+00  0.0000E+00  0.0000E+00  0.0000E+00  0.0000E+00  0.0000E+00  0.0000E+00  0.0000E+00  0.0000E+00
     -7.370  0.0000E+00  0.0000E+00  0.0000E+00  0.0000E+00  0.0000E+00  0.0000E+00  0.0000E+00  0.0000E+00  0.0000E+00
     -7.266  0.0000E+00  0.0000E+00  0.0000E+00  0.0000E+00  0.0000E+00  0.0000E+00  0.0000E+00  0.0000E+00  0.0000E+00
     -7.162  0.0000E+00  0.0000E+00  0.0000E+00  0.0000E+00  0.0000E+00  0.0000E+00  0.0000E+00  0.0000E+00  0.0000E+00
     -7.058  0.0000E+00  0.0000E+00  0.0000E+00  0.0000E+00  0.0000E+00  0.0000E+00  0.0000E+00  0.0000E+00  0.0000E+00
     -6.954  0.0000E+00  0.0000E+00  0.0000E+00  0.0000E+00  0.0000E+00  0.0000E+00  0.0000E+00  0.0000E+00  0.0000E+00
     -6.851  0.0000E+00  0.0000E+00  0.0000E+00  0.0000E+00  0.0000E+00  0.0000E+00  0.0000E+00  0.0000E+00  0.0000E+00
     -6.747  0.0000E+00  0.0000E+00  0.0000E+00  0.0000E+00  0.0000E+00  0.0000E+00  0.0000E+00  0.0000E+00  0.0000E+00
     -6.643  0.0000E+00  0.0000E+00  0.0000E+00  0.0000E+00  0.0000E+00  0.0000E+00  0.0000E+00  0.0000E+00  0.0000E+00
     -6.539  0.0000E+00  0.0000E+00  0.0000E+00  0.0000E+00  0.0000E+00  0.0000E+00  0.0000E+00  0.0000E+00  0.0000E+00
     -6.435  0.0000E+00  0.0000E+00  0.0000E+00  0.0000E+00  0.0000E+00  0.0000E+00  0.0000E+00  0.0000E+00  0.0000E+00
     -6.331  0.0000E+00  0.0000E+00  0.0000E+00  0.0000E+00  0.0000E+00  0.0000E+00  0.0000E+00  0.0000E+00  0.0000E+00
     -6.228  0.0000E+00  0.0000E+00  0.0000E+00  0.0000E+00  0.0000E+00  0.0000E+00  0.0000E+00  0.0000E+00  0.0000E+00
     -6.124  0.0000E+00  0.0000E+00  0.0000E+00  0.0000E+00  0.0000E+00  0.0000E+00  0.0000E+00  0.0000E+00  0.0000E+00
     -6.020  0.0000E+00  0.0000E+00  0.0000E+00  0.0000E+00  0.0000E+00  0.0000E+00  0.0000E+00  0.0000E+00  0.0000E+00
     -5.916  0.0000E+00  0.0000E+00  0.0000E+00  0.0000E+00  0.0000E+00  0.0000E+00  0.0000E+00  0.0000E+00  0.0000E+00
     -5.812  0.0000E+00  0.0000E+00  0.0000E+00  0.0000E+00  0.0000E+00  0.0000E+00  0.0000E+00  0.0000E+00  0.0000E+00
     -5.708  0.0000E+00  0.0000E+00  0.0000E+00  0.0000E+00  0.0000E+00  0.0000E+00  0.0000E+00  0.0000E+00  0.0000E+00
     -5.605  0.0000E+00  0.0000E+00  0.0000E+00  0.0000E+00  0.0000E+00  0.0000E+00  0.0000E+00  0.0000E+00  0.0000E+00
     -5.501  0.0000E+00  0.0000E+00  0.0000E+00  0.0000E+00  0.0000E+00  0.0000E+00  0.0000E+00  0.0000E+00  0.0000E+00
     -5.397  0.0000E+00  0.0000E+00  0.0000E+00  0.0000E+00  0.0000E+00  0.0000E+00  0.0000E+00  0.0000E+00  0.0000E+00
     -5.293  0.0000E+00  0.0000E+00  0.0000E+00  0.0000E+00  0.0000E+00  0.0000E+00  0.0000E+00  0.0000E+00  0.0000E+00
     -5.189  0.0000E+00  0.0000E+00  0.0000E+00  0.0000E+00  0.0000E+00  0.0000E+00  0.0000E+00  0.0000E+00  0.0000E+00
     -5.085  0.0000E+00  0.0000E+00  0.0000E+00  0.0000E+00  0.0000E+00  0.0000E+00  0.0000E+00  0.0000E+00  0.0000E+00
     -4.982  0.0000E+00  0.0000E+00  0.0000E+00  0.0000E+00  0.0000E+00  0.0000E+00  0.0000E+00  0.0000E+00  0.0000E+00
     -4.878  0.0000E+00  0.0000E+00  0.0000E+00  0.0000E+00  0.0000E+00  0.0000E+00  0.0000E+00  0.0000E+00  0.0000E+00
     -4.774  0.0000E+00  0.0000E+00  0.0000E+00  0.0000E+00  0.0000E+00  0.0000E+00  0.0000E+00  0.0000E+00  0.0000E+00
     -4.670  0.0000E+00  0.0000E+00  0.0000E+00  0.0000E+00  0.0000E+00  0.0000E+00  0.0000E+00  0.0000E+00  0.0000E+00
     -4.566  0.0000E+00  0.0000E+00  0.0000E+00  0.0000E+00  0.0000E+00  0.0000E+00  0.0000E+00  0.0000E+00  0.0000E+00
     -4.463  0.0000E+00  0.0000E+00  0.0000E+00  0.0000E+00  0.0000E+00  0.0000E+00  0.0000E+00  0.0000E+00  0.0000E+00
     -4.359  0.0000E+00  0.0000E+00  0.0000E+00  0.0000E+00  0.0000E+00  0.0000E+00  0.0000E+00  0.0000E+00  0.0000E+00
     -4.255  0.0000E+00  0.0000E+00  0.0000E+00  0.0000E+00  0.0000E+00  0.0000E+00  0.0000E+00  0.0000E+00  0.0000E+00
     -4.151  0.0000E+00  0.0000E+00  0.0000E+00  0.0000E+00  0.0000E+00  0.0000E+00  0.0000E+00  0.0000E+00  0.0000E+00
     -4.047  0.0000E+00  0.0000E+00  0.0000E+00  0.0000E+00  0.0000E+00  0.0000E+00  0.0000E+00  0.0000E+00  0.0000E+00
     -3.943  0.0000E+00  0.0000E+00  0.0000E+00  0.0000E+00  0.0000E+00  0.0000E+00  0.0000E+00  0.0000E+00  0.0000E+00
     -3.840  0.0000E+00  0.0000E+00  0.0000E+00  0.0000E+00  0.0000E+00  0.0000E+00  0.0000E+00  0.0000E+00  0.0000E+00
     -3.736  0.0000E+00  0.0000E+00  0.0000E+00  0.0000E+00  0.0000E+00  0.0000E+00  0.0000E+00  0.0000E+00  0.0000E+00
     -3.632  0.0000E+00  0.0000E+00  0.0000E+00  0.0000E+00  0.0000E+00  0.0000E+00  0.0000E+00  0.0000E+00  0.0000E+00
     -3.528  0.0000E+00  0.0000E+00  0.0000E+00  0.0000E+00  0.0000E+00  0.0000E+00  0.0000E+00  0.0000E+00  0.0000E+00
     -3.424  0.0000E+00  0.0000E+00  0.0000E+00  0.0000E+00  0.0000E+00  0.0000E+00  0.0000E+00  0.0000E+00  0.0000E+00
     -3.320  0.0000E+00  0.0000E+00  0.0000E+00  0.0000E+00  0.0000E+00  0.0000E+00  0.0000E+00  0.0000E+00  0.0000E+00
     -3.217  0.0000E+00  0.0000E+00  0.0000E+00  0.0000E+00  0.0000E+00  0.0000E+00  0.0000E+00  0.0000E+00  0.0000E+00
     -3.113  0.0000E+00  0.0000E+00  0.0000E+00  0.0000E+00  0.0000E+00  0.0000E+00  0.0000E+00  0.0000E+00  0.0000E+00
     -3.009  0.0000E+00  0.0000E+00  0.0000E+00  0.0000E+00  0.0000E+00  0.0000E+00  0.0000E+00  0.0000E+00  0.0000E+00
     -2.905  0.0000E+00  0.0000E+00  0.0000E+00  0.0000E+00  0.0000E+00  0.0000E+00  0.0000E+00  0.0000E+00  0.0000E+00
     -2.801  0.0000E+00  0.0000E+00  0.0000E+00  0.0000E+00  0.0000E+00  0.0000E+00  0.0000E+00  0.0000E+00  0.0000E+00
     -2.697  0.0000E+00  0.0000E+00  0.0000E+00  0.0000E+00  0.0000E+00  0.0000E+00  0.0000E+00  0.0000E+00  0.0000E+00
     -2.594  0.0000E+00  0.0000E+00  0.0000E+00  0.0000E+00  0.0000E+00  0.0000E+00  0.0000E+00  0.0000E+00  0.0000E+00
     -2.490  0.0000E+00  0.0000E+00  0.0000E+00  0.0000E+00  0.0000E+00  0.0000E+00  0.0000E+00  0.0000E+00  0.0000E+00
     -2.386  0.0000E+00  0.0000E+00  0.0000E+00  0.0000E+00  0.0000E+00  0.0000E+00  0.0000E+00  0.0000E+00  0.0000E+00
     -2.282  0.0000E+00  0.0000E+00  0.0000E+00  0.0000E+00  0.0000E+00  0.0000E+00  0.0000E+00  0.0000E+00  0.0000E+00
     -2.178  0.0000E+00  0.0000E+00  0.0000E+00  0.0000E+00  0.0000E+00  0.0000E+00  0.0000E+00  0.0000E+00  0.0000E+00
     -2.074  0.0000E+00  0.0000E+00  0.0000E+00  0.0000E+00  0.0000E+00  0.0000E+00  0.0000E+00  0.0000E+00  0.0000E+00
     -1.971  0.0000E+00  0.0000E+00  0.0000E+00  0.0000E+00  0.0000E+00  0.0000E+00  0.0000E+00  0.0000E+00  0.0000E+00
     -1.867  0.0000E+00  0.0000E+00  0.0000E+00  0.0000E+00  0.0000E+00  0.0000E+00  0.0000E+00  0.0000E+00  0.0000E+00
     -1.763  0.0000E+00  0.0000E+00  0.0000E+00  0.0000E+00  0.0000E+00  0.0000E+00  0.0000E+00  0.0000E+00  0.0000E+00
     -1.659  0.0000E+00  0.0000E+00  0.0000E+00  0.0000E+00  0.0000E+00  0.0000E+00  0.0000E+00  0.0000E+00  0.0000E+00
     -1.555  0.0000E+00  0.0000E+00  0.0000E+00  0.0000E+00  0.0000E+00  0.0000E+00  0.0000E+00  0.0000E+00  0.0000E+00
     -1.451  0.0000E+00  0.0000E+00  0.0000E+00  0.0000E+00  0.0000E+00  0.0000E+00  0.0000E+00  0.0000E+00  0.0000E+00
     -1.348  0.0000E+00  0.0000E+00  0.0000E+00  0.0000E+00  0.0000E+00  0.0000E+00  0.0000E+00  0.0000E+00  0.0000E+00
     -1.244  0.0000E+00  0.0000E+00  0.0000E+00  0.0000E+00  0.0000E+00  0.0000E+00  0.0000E+00  0.0000E+00  0.0000E+00
     -1.140  0.0000E+00  0.0000E+00  0.0000E+00  0.0000E+00  0.0000E+00  0.0000E+00  0.0000E+00  0.0000E+00  0.0000E+00
     -1.036  0.0000E+00  0.0000E+00  0.0000E+00  0.0000E+00  0.0000E+00  0.0000E+00  0.0000E+00  0.0000E+00  0.0000E+00
     -0.932  0.0000E+00  0.0000E+00  0.0000E+00  0.0000E+00  0.0000E+00  0.0000E+00  0.0000E+00  0.0000E+00  0.0000E+00
     -0.829  0.0000E+00  0.0000E+00  0.0000E+00  0.0000E+00  0.0000E+00  0.0000E+00  0.0000E+00  0.0000E+00  0.0000E+00
     -0.725  0.0000E+00  0.0000E+00  0.0000E+00  0.0000E+00  0.0000E+00  0.0000E+00  0.0000E+00  0.0000E+00  0.0000E+00
     -0.621  0.0000E+00  0.0000E+00  0.0000E+00  0.0000E+00  0.0000E+00  0.0000E+00  0.0000E+00  0.0000E+00  0.0000E+00
     -0.517  0.0000E+00  0.0000E+00  0.0000E+00  0.0000E+00  0.0000E+00  0.0000E+00  0.0000E+00  0.0000E+00  0.0000E+00
     -0.413  0.0000E+00  0.0000E+00  0.0000E+00  0.0000E+00  0.0000E+00  0.0000E+00  0.0000E+00  0.0000E+00  0.0000E+00
     -0.309  0.0000E+00  0.0000E+00  0.0000E+00  0.0000E+00  0.0000E+00  0.0000E+00  0.0000E+00  0.0000E+00  0.0000E+00
     -0.206  0.0000E+00  0.0000E+00  0.0000E+00  0.0000E+00  0.0000E+00  0.0000E+00  0.0000E+00  0.0000E+00  0.0000E+00
     -0.102  0.0000E+00  0.0000E+00  0.0000E+00  0.0000E+00  0.0000E+00  0.0000E+00  0.0000E+00  0.0000E+00  0.0000E+00
      0.002  0.0000E+00  0.0000E+00  0.0000E+00  0.0000E+00  0.0000E+00  0.0000E+00  0.0000E+00  0.0000E+00  0.0000E+00
      0.106  0.0000E+00  0.0000E+00  0.0000E+00  0.0000E+00  0.0000E+00  0.0000E+00  0.0000E+00  0.0000E+00  0.0000E+00
      0.210  0.0000E+00  0.0000E+00  0.0000E+00  0.0000E+00  0.0000E+00  0.0000E+00  0.0000E+00  0.0000E+00  0.0000E+00
      0.314  0.0000E+00  0.0000E+00  0.0000E+00  0.0000E+00  0.0000E+00  0.0000E+00  0.0000E+00  0.0000E+00  0.0000E+00
      0.417  0.1452E-14  0.2990E-15  0.2990E-15  0.2990E-15  0.0000E+00  0.0000E+00  0.0000E+00  0.0000E+00  0.0000E+00
      0.521  0.6241E-10  0.1285E-10  0.1285E-10  0.1285E-10  0.0000E+00  0.0000E+00  0.0000E+00  0.0000E+00  0.0000E+00
      0.625  0.3244E-06  0.6679E-07  0.6678E-07  0.6679E-07  0.0000E+00  0.0000E+00  0.0000E+00  0.0000E+00  0.0000E+00
      0.729  0.2100E-03  0.4324E-04  0.4324E-04  0.4324E-04  0.0000E+00  0.0000E+00  0.0000E+00  0.0000E+00  0.0000E+00
      0.833  0.1778E-01  0.3661E-02  0.3661E-02  0.3661E-02  0.0000E+00  0.0000E+00  0.0000E+00  0.0000E+00  0.0000E+00
      0.937  0.2140E+00  0.4406E-01  0.4406E-01  0.4406E-01  0.0000E+00  0.0000E+00  0.0000E+00  0.0000E+00  0.0000E+00
      1.040  0.4055E+00  0.8348E-01  0.8348E-01  0.8348E-01  0.0000E+00  0.0000E+00  0.0000E+00  0.0000E+00  0.0000E+00
      1.144  0.1259E+00  0.2592E-01  0.2592E-01  0.2592E-01  0.0000E+00  0.0000E+00  0.0000E+00  0.0000E+00  0.0000E+00
      1.248  0.5986E-02  0.1232E-02  0.1232E-02  0.1232E-02  0.0000E+00  0.0000E+00  0.0000E+00  0.0000E+00  0.0000E+00
      1.352  0.3933E-04  0.8096E-05  0.8096E-05  0.8096E-05  0.0000E+00  0.0000E+00  0.0000E+00  0.0000E+00  0.0000E+00
      1.456  0.3320E-07  0.6836E-08  0.6836E-08  0.6836E-08  0.0000E+00  0.0000E+00  0.0000E+00  0.0000E+00  0.0000E+00
      1.560  0.3461E-11  0.7124E-12  0.7124E-12  0.7124E-12  0.0000E+00  0.0000E+00  0.0000E+00  0.0000E+00  0.0000E+00
      1.663  0.3270E-10  0.7196E-12  0.7196E-12  0.7196E-12  0.0000E+00  0.0000E+00  0.0000E+00  0.0000E+00  0.0000E+00
      1.767  0.1645E-06  0.3620E-08  0.3620E-08  0.3620E-08  0.0000E+00  0.0000E+00  0.0000E+00  0.0000E+00  0.0000E+00
      1.871  0.1031E-03  0.2270E-05  0.2270E-05  0.2270E-05  0.0000E+00  0.0000E+00  0.0000E+00  0.0000E+00  0.0000E+00
      1.975  0.8464E-02  0.1863E-03  0.1863E-03  0.1863E-03  0.0000E+00  0.0000E+00  0.0000E+00  0.0000E+00  0.0000E+00
      2.079  0.9889E-01  0.2176E-02  0.2176E-02  0.2176E-02  0.0000E+00  0.0000E+00  0.0000E+00  0.0000E+00  0.0000E+00
      2.182  0.1822E+00  0.4009E-02  0.4009E-02  0.4009E-02  0.0000E+00  0.0000E+00  0.0000E+00  0.0000E+00  0.0000E+00
      2.286  0.5498E-01  0.1210E-02  0.1210E-02  0.1210E-02  0.0000E+00  0.0000E+00  0.0000E+00  0.0000E+00  0.0000E+00
      2.390  0.2536E-02  0.5581E-04  0.5581E-04  0.5581E-04  0.0000E+00  0.0000E+00  0.0000E+00  0.0000E+00  0.0000E+00
      2.494  0.1616E-04  0.3746E-06  0.3746E-06  0.3746E-06  0.0000E+00  0.0000E+00  0.0000E+00  0.0000E+00  0.0000E+00
      2.598  0.1305E-04  0.1789E-04  0.1789E-04  0.1789E-04  0.0000E+00  0.0000E+00  0.0000E+00  0.0000E+00  0.0000E+00
      2.702  0.1560E-02  0.2141E-02  0.2141E-02  0.2141E-02  0.0000E+00  0.0000E+00  0.0000E+00  0.0000E+00  0.0000E+00
      2.805  0.2610E-01  0.3581E-01  0.3581E-01  0.3581E-01  0.0000E+00  0.0000E+00  0.0000E+00  0.0000E+00  0.0000E+00
      2.909  0.6764E-01  0.9281E-01  0.9281E-01  0.9281E-01  0.0000E+00  0.0000E+00  0.0000E+00  0.0000E+00  0.0000E+00