    8    8    1    1
  0.9335286E+01  0.4211200E-09  0.4211200E-09  0.4211200E-09  0.5000000E-15
  1.000000000000000E-004
  CAR 
 Au, FCC                                 
   32    1   21
 
  0.2500000E+00  0.2500000E+00  0.2500000E+00  0.1000000E+01
   1      -11.872051
   2      -11.054338
   3      -11.054338
   4      -11.054338
   5        0.973315
   6        0.973315
   7        0.973315
   8        2.113805
   9        2.860142
  10        2.860142
  11        2.860142
  12        3.753093
  13        3.753093
  14        3.753093
  15        4.423914
  16        4.423914
  17       11.906889
  18       14.528561
  19       14.528614
  20       14.528622
  21       16.444669
