       N       E                     dE             d eps       ncg     rms          rms(c)
DAV:   1     0.121684623388E+03    0.12168E+03   -0.12487E+04    42   0.998E+02
DAV:   2    -0.477061613787E+02   -0.16939E+03   -0.16689E+03    60   0.240E+02
DAV:   3    -0.546287310566E+02   -0.69226E+01   -0.69136E+01    52   0.546E+01
DAV:   4    -0.546758060701E+02   -0.47075E-01   -0.47070E-01    52   0.504E+00
DAV:   5    -0.546763895077E+02   -0.58344E-03   -0.58343E-03    52   0.581E-01    0.137E+01
RMM:   6    -0.488834452839E+02    0.57929E+01   -0.24959E+01    46   0.274E+01    0.432E+00
RMM:   7    -0.487897239506E+02    0.93721E-01   -0.25685E-01    50   0.289E+00    0.274E+00
RMM:   8    -0.487613808623E+02    0.28343E-01   -0.13908E-01    46   0.382E+00    0.496E-01
RMM:   9    -0.487609044148E+02    0.47645E-03   -0.99619E-02    51   0.172E+00    0.396E-01
RMM:  10    -0.487564452932E+02    0.44591E-02   -0.82195E-03    49   0.515E-01    0.129E-01
RMM:  11    -0.487561429620E+02    0.30233E-03   -0.27235E-03    49   0.284E-01    0.146E-02
RMM:  12    -0.487561382039E+02    0.47581E-05   -0.35333E-05    30   0.405E-02
   1 F= -.48756138E+02 E0= -.48756138E+02  d E =-.151526E-14
