PROCAR lm decomposed
# of k-points:    1         # of bands:  21         # of ions:   8

 k-point    1 :    0.25000000 0.25000000 0.25000000     weight = 1.00000000

band   1 # energy  -11.87205093 # occ.  2.00000000
 
ion      s     py     pz     px    dxy    dyz    dz2    dxz    dx2    tot
  1  0.006  0.001  0.001  0.001  0.000  0.000  0.000  0.000  0.000  0.008
  2  0.006  0.001  0.001  0.001  0.000  0.000  0.000  0.000  0.000  0.008
  3  0.006  0.001  0.001  0.001  0.000  0.000  0.000  0.000  0.000  0.008
  4  0.006  0.001  0.001  0.001  0.000  0.000  0.000  0.000  0.000  0.008
  5  0.182  0.000  0.000  0.000  0.000  0.000  0.000  0.000  0.000  0.182
  6  0.182  0.000  0.000  0.000  0.000  0.000  0.000  0.000  0.000  0.182
  7  0.182  0.000  0.000  0.000  0.000  0.000  0.000  0.000  0.000  0.182
  8  0.182  0.000  0.000  0.000  0.000  0.000  0.000  0.000  0.000  0.182
tot  0.751  0.003  0.003  0.003  0.000  0.000  0.000  0.000  0.000  0.761
 
band   2 # energy  -11.05433761 # occ.  2.00000000
 
ion      s     py     pz     px    dxy    dyz    dz2    dxz    dx2    tot
  1  0.002  0.001  0.000  0.000  0.000  0.000  0.000  0.000  0.000  0.003
  2  0.000  0.000  0.001  0.002  0.000  0.000  0.000  0.000  0.000  0.003
  3  0.001  0.002  0.000  0.000  0.000  0.000  0.000  0.000  0.000  0.003
  4  0.000  0.000  0.002  0.001  0.000  0.000  0.000  0.000  0.000  0.003
  5  0.476  0.000  0.000  0.000  0.000  0.000  0.000  0.000  0.000  0.476
  6  0.243  0.000  0.000  0.000  0.000  0.000  0.000  0.000  0.000  0.243
  7  0.073  0.000  0.000  0.000  0.000  0.000  0.000  0.000  0.000  0.073
  8  0.004  0.000  0.000  0.000  0.000  0.000  0.000  0.000  0.000  0.004
tot  0.799  0.003  0.003  0.003  0.000  0.000  0.000  0.000  0.000  0.809
 
band   3 # energy  -11.05433761 # occ.  2.00000000
 
ion      s     py     pz     px    dxy    dyz    dz2    dxz    dx2    tot
  1  0.000  0.000  0.002  0.001  0.000  0.000  0.000  0.000  0.000  0.003
  2  0.001  0.002  0.000  0.000  0.000  0.000  0.000  0.000  0.000  0.003
  3  0.000  0.000  0.001  0.002  0.000  0.000  0.000  0.000  0.000  0.003
  4  0.002  0.001  0.000  0.000  0.000  0.000  0.000  0.000  0.000  0.003
  5  0.058  0.000  0.000  0.000  0.000  0.000  0.000  0.000  0.000  0.058
  6  0.020  0.000  0.000  0.000  0.000  0.000  0.000  0.000  0.000  0.020
  7  0.189  0.000  0.000  0.000  0.000  0.000  0.000  0.000  0.000  0.189
  8  0.530  0.000  0.000  0.000  0.000  0.000  0.000  0.000  0.000  0.530
tot  0.799  0.003  0.003  0.003  0.000  0.000  0.000  0.000  0.000  0.809
 
band   4 # energy  -11.05433761 # occ.  2.00000000
 
ion      s     py     pz     px    dxy    dyz    dz2    dxz    dx2    tot
  1  0.000  0.001  0.000  0.001  0.000  0.000  0.000  0.000  0.000  0.003
  2  0.001  0.000  0.001  0.000  0.000  0.000  0.000  0.000  0.000  0.003
  3  0.001  0.000  0.001  0.000  0.000  0.000  0.000  0.000  0.000  0.003
  4  0.000  0.001  0.000  0.001  0.000  0.000  0.000  0.000  0.000  0.003
  5  0.063  0.000  0.000  0.000  0.000  0.000  0.000  0.000  0.000  0.063
  6  0.335  0.000  0.000  0.000  0.000  0.000  0.000  0.000  0.000  0.335
  7  0.335  0.000  0.000  0.000  0.000  0.000  0.000  0.000  0.000  0.336
  8  0.063  0.000  0.000  0.000  0.000  0.000  0.000  0.000  0.000  0.063
tot  0.799  0.004  0.003  0.003  0.000  0.000  0.000  0.000  0.000  0.809
 
band   5 # energy    0.97331481 # occ.  2.00000000
 
ion      s     py     pz     px    dxy    dyz    dz2    dxz    dx2    tot
  1  0.028  0.004  0.002  0.007  0.000  0.000  0.000  0.000  0.000  0.041
  2  0.002  0.001  0.000  0.003  0.000  0.000  0.000  0.000  0.000  0.007
  3  0.006  0.001  0.001  0.004  0.000  0.000  0.000  0.000  0.000  0.012
  4  0.017  0.003  0.000  0.006  0.000  0.000  0.000  0.000  0.000  0.026
  5  0.003  0.007  0.018  0.030  0.000  0.000  0.000  0.000  0.000  0.057
  6  0.001  0.069  0.002  0.077  0.000  0.000  0.000  0.000  0.000  0.149
  7  0.000  0.048  0.014  0.104  0.000  0.000  0.000  0.000  0.000  0.166
  8  0.002  0.006  0.050  0.047  0.000  0.000  0.000  0.000  0.000  0.105
tot  0.060  0.138  0.087  0.278  0.000  0.000  0.000  0.000  0.000  0.563
 
band   6 # energy    0.97331482 # occ.  2.00000000
 
ion      s     py     pz     px    dxy    dyz    dz2    dxz    dx2    tot
  1  0.004  0.004  0.000  0.001  0.000  0.000  0.000  0.000  0.000  0.009
  2  0.022  0.007  0.001  0.004  0.000  0.000  0.000  0.000  0.000  0.034
  3  0.022  0.007  0.001  0.004  0.000  0.000  0.000  0.000  0.000  0.034
  4  0.004  0.004  0.000  0.001  0.000  0.000  0.000  0.000  0.000  0.009
  5  0.001  0.092  0.006  0.059  0.000  0.000  0.000  0.000  0.000  0.158
  6  0.003  0.039  0.032  0.006  0.000  0.000  0.000  0.000  0.000  0.080
  7  0.003  0.039  0.033  0.006  0.000  0.000  0.000  0.000  0.000  0.081
  8  0.001  0.092  0.006  0.060  0.000  0.000  0.000  0.000  0.000  0.158
tot  0.060  0.284  0.080  0.139  0.000  0.000  0.000  0.000  0.000  0.563
 
band   7 # energy    0.97331493 # occ.  2.00000000
 
ion      s     py     pz     px    dxy    dyz    dz2    dxz    dx2    tot
  1  0.008  0.000  0.006  0.000  0.000  0.000  0.000  0.000  0.000  0.014
  2  0.015  0.001  0.007  0.001  0.000  0.000  0.000  0.000  0.000  0.024
  3  0.011  0.001  0.006  0.000  0.000  0.000  0.000  0.000  0.000  0.018
  4  0.019  0.001  0.008  0.002  0.000  0.000  0.000  0.000  0.000  0.029
  5  0.001  0.019  0.094  0.029  0.000  0.000  0.000  0.000  0.000  0.142
  6  0.001  0.010  0.083  0.035  0.000  0.000  0.000  0.000  0.000  0.129
  7  0.002  0.031  0.071  0.008  0.000  0.000  0.000  0.000  0.000  0.111
  8  0.002  0.019  0.061  0.011  0.000  0.000  0.000  0.000  0.000  0.094
tot  0.060  0.082  0.336  0.086  0.000  0.000  0.000  0.000  0.000  0.563
 
band   8 # energy    2.11380514 # occ.  2.00000000
 
ion      s     py     pz     px    dxy    dyz    dz2    dxz    dx2    tot
  1  0.018  0.000  0.000  0.000  0.000  0.000  0.000  0.000  0.000  0.019
  2  0.018  0.000  0.000  0.000  0.000  0.000  0.000  0.000  0.000  0.019
  3  0.018  0.000  0.000  0.000  0.000  0.000  0.000  0.000  0.000  0.019
  4  0.018  0.000  0.000  0.000  0.000  0.000  0.000  0.000  0.000  0.019
  5  0.009  0.043  0.043  0.043  0.000  0.000  0.000  0.000  0.000  0.137
  6  0.009  0.043  0.043  0.043  0.000  0.000  0.000  0.000  0.000  0.137
  7  0.009  0.043  0.043  0.043  0.000  0.000  0.000  0.000  0.000  0.137
  8  0.009  0.043  0.043  0.043  0.000  0.000  0.000  0.000  0.000  0.137
tot  0.110  0.172  0.172  0.172  0.000  0.000  0.000  0.000  0.000  0.626
 
band   9 # energy    2.86014186 # occ.  2.00000000
 
ion      s     py     pz     px    dxy    dyz    dz2    dxz    dx2    tot
  1  0.005  0.001  0.001  0.001  0.000  0.000  0.000  0.000  0.000  0.008
  2  0.000  0.003  0.002  0.008  0.000  0.000  0.000  0.000  0.000  0.013
  3  0.001  0.006  0.000  0.004  0.000  0.000  0.000  0.000  0.000  0.012
  4  0.002  0.000  0.006  0.003  0.000  0.000  0.000  0.000  0.000  0.011
  5  0.002  0.116  0.116  0.115  0.000  0.000  0.000  0.000  0.000  0.348
  6  0.000  0.032  0.031  0.031  0.000  0.000  0.000  0.000  0.000  0.094
  7  0.000  0.006  0.006  0.006  0.000  0.000  0.000  0.000  0.000  0.017
  8  0.001  0.044  0.046  0.044  0.000  0.000  0.000  0.000  0.000  0.134
tot  0.011  0.209  0.209  0.210  0.000  0.000  0.000  0.000  0.000  0.639
 
band  10 # energy    2.86014186 # occ.  2.00000000
 
ion      s     py     pz     px    dxy    dyz    dz2    dxz    dx2    tot
  1  0.001  0.002  0.007  0.003  0.000  0.000  0.000  0.000  0.000  0.012
  2  0.003  0.004  0.003  0.000  0.000  0.000  0.000  0.000  0.000  0.011
  3  0.001  0.001  0.005  0.005  0.000  0.000  0.000  0.000  0.000  0.012
  4  0.004  0.003  0.002  0.001  0.000  0.000  0.000  0.000  0.000  0.010
  5  0.000  0.017  0.016  0.017  0.000  0.000  0.000  0.000  0.000  0.051
  6  0.000  0.032  0.031  0.033  0.000  0.000  0.000  0.000  0.000  0.096
  7  0.001  0.062  0.060  0.062  0.000  0.000  0.000  0.000  0.000  0.185
  8  0.001  0.088  0.086  0.087  0.000  0.000  0.000  0.000  0.000  0.262
tot  0.011  0.208  0.211  0.208  0.000  0.000  0.000  0.000  0.000  0.639
 
band  11 # energy    2.86014187 # occ.  2.00000000
 
ion      s     py     pz     px    dxy    dyz    dz2    dxz    dx2    tot
  1  0.001  0.006  0.001  0.005  0.000  0.000  0.000  0.000  0.000  0.013
  2  0.004  0.002  0.004  0.001  0.000  0.000  0.000  0.000  0.000  0.010
  3  0.004  0.002  0.004  0.001  0.000  0.000  0.000  0.000  0.000  0.010
  4  0.001  0.006  0.001  0.005  0.000  0.000  0.000  0.000  0.000  0.012
  5  0.000  0.015  0.016  0.016  0.000  0.000  0.000  0.000  0.000  0.046
  6  0.001  0.084  0.086  0.085  0.000  0.000  0.000  0.000  0.000  0.255
  7  0.001  0.080  0.082  0.081  0.000  0.000  0.000  0.000  0.000  0.243
  8  0.000  0.016  0.017  0.017  0.000  0.000  0.000  0.000  0.000  0.049
tot  0.011  0.210  0.208  0.209  0.000  0.000  0.000  0.000  0.000  0.639
 
band  12 # energy    3.75309254 # occ.  2.00000000
 
ion      s     py     pz     px    dxy    dyz    dz2    dxz    dx2    tot
  1  0.000  0.003  0.000  0.003  0.000  0.000  0.000  0.000  0.000  0.006
  2  0.000  0.003  0.000  0.003  0.000  0.000  0.000  0.000  0.000  0.006
  3  0.000  0.003  0.000  0.003  0.000  0.000  0.000  0.000  0.000  0.006
  4  0.000  0.003  0.000  0.003  0.000  0.000  0.000  0.000  0.000  0.006
  5  0.000  0.085  0.000  0.085  0.000  0.000  0.000  0.000  0.000  0.170
  6  0.000  0.085  0.000  0.085  0.000  0.000  0.000  0.000  0.000  0.170
  7  0.000  0.085  0.000  0.085  0.000  0.000  0.000  0.000  0.000  0.170
  8  0.000  0.085  0.000  0.085  0.000  0.000  0.000  0.000  0.000  0.170
tot  0.000  0.352  0.000  0.352  0.000  0.000  0.000  0.000  0.000  0.704
 
band  13 # energy    3.75309265 # occ.  2.00000000
 
ion      s     py     pz     px    dxy    dyz    dz2    dxz    dx2    tot
  1  0.000  0.001  0.005  0.002  0.000  0.000  0.000  0.000  0.000  0.008
  2  0.000  0.001  0.001  0.002  0.000  0.000  0.000  0.000  0.000  0.004
  3  0.000  0.001  0.001  0.002  0.000  0.000  0.000  0.000  0.000  0.004
  4  0.000  0.001  0.005  0.002  0.000  0.000  0.000  0.000  0.000  0.008
  5  0.000  0.030  0.140  0.055  0.000  0.000  0.000  0.000  0.000  0.225
  6  0.000  0.030  0.030  0.055  0.000  0.000  0.000  0.000  0.000  0.115
  7  0.000  0.030  0.030  0.055  0.000  0.000  0.000  0.000  0.000  0.115
  8  0.000  0.030  0.140  0.055  0.000  0.000  0.000  0.000  0.000  0.225
tot  0.000  0.125  0.352  0.227  0.000  0.000  0.000  0.000  0.000  0.704
 
band  14 # energy    3.75309265 # occ.  2.00000000
 
ion      s     py     pz     px    dxy    dyz    dz2    dxz    dx2    tot
  1  0.000  0.002  0.001  0.001  0.000  0.000  0.000  0.000  0.000  0.004
  2  0.000  0.002  0.005  0.001  0.000  0.000  0.000  0.000  0.000  0.008
  3  0.000  0.002  0.005  0.001  0.000  0.000  0.000  0.000  0.000  0.008
  4  0.000  0.002  0.001  0.001  0.000  0.000  0.000  0.000  0.000  0.004
  5  0.000  0.055  0.030  0.030  0.000  0.000  0.000  0.000  0.000  0.115
  6  0.000  0.055  0.140  0.030  0.000  0.000  0.000  0.000  0.000  0.225
  7  0.000  0.055  0.140  0.030  0.000  0.000  0.000  0.000  0.000  0.225
  8  0.000  0.055  0.030  0.030  0.000  0.000  0.000  0.000  0.000  0.115
tot  0.000  0.227  0.352  0.125  0.000  0.000  0.000  0.000  0.000  0.704
 
band  15 # energy    4.42391366 # occ.  2.00000000
 
ion      s     py     pz     px    dxy    dyz    dz2    dxz    dx2    tot
  1  0.000  0.001  0.000  0.001  0.000  0.000  0.000  0.000  0.000  0.002
  2  0.000  0.001  0.000  0.001  0.000  0.000  0.000  0.000  0.000  0.002
  3  0.000  0.001  0.000  0.001  0.000  0.000  0.000  0.000  0.000  0.002
  4  0.000  0.001  0.000  0.001  0.000  0.000  0.000  0.000  0.000  0.002
  5  0.000  0.091  0.000  0.091  0.000  0.000  0.000  0.000  0.000  0.183
  6  0.000  0.091  0.000  0.091  0.000  0.000  0.000  0.000  0.000  0.183
  7  0.000  0.091  0.000  0.091  0.000  0.000  0.000  0.000  0.000  0.183
  8  0.000  0.091  0.000  0.091  0.000  0.000  0.000  0.000  0.000  0.183
tot  0.000  0.370  0.000  0.370  0.000  0.000  0.000  0.000  0.000  0.740
 
band  16 # energy    4.42391383 # occ.  2.00000000
 
ion      s     py     pz     px    dxy    dyz    dz2    dxz    dx2    tot
  1  0.000  0.000  0.001  0.000  0.000  0.000  0.000  0.000  0.000  0.002
  2  0.000  0.000  0.001  0.000  0.000  0.000  0.000  0.000  0.000  0.002
  3  0.000  0.000  0.001  0.000  0.000  0.000  0.000  0.000  0.000  0.002
  4  0.000  0.000  0.001  0.000  0.000  0.000  0.000  0.000  0.000  0.002
  5  0.000  0.030  0.122  0.030  0.000  0.000  0.000  0.000  0.000  0.183
  6  0.000  0.030  0.122  0.030  0.000  0.000  0.000  0.000  0.000  0.183
  7  0.000  0.030  0.122  0.030  0.000  0.000  0.000  0.000  0.000  0.183
  8  0.000  0.030  0.122  0.030  0.000  0.000  0.000  0.000  0.000  0.183
tot  0.000  0.123  0.493  0.123  0.000  0.000  0.000  0.000  0.000  0.740
 
band  17 # energy   11.90688888 # occ.  0.00000000
 
ion      s     py     pz     px    dxy    dyz    dz2    dxz    dx2    tot
  1  0.033  0.006  0.006  0.006  0.000  0.000  0.000  0.000  0.000  0.051
  2  0.033  0.006  0.006  0.006  0.000  0.000  0.000  0.000  0.000  0.051
  3  0.033  0.006  0.006  0.006  0.000  0.000  0.000  0.000  0.000  0.051
  4  0.033  0.006  0.006  0.006  0.000  0.000  0.000  0.000  0.000  0.051
  5  0.042  0.012  0.012  0.012  0.000  0.000  0.000  0.000  0.000  0.077
  6  0.042  0.012  0.012  0.012  0.000  0.000  0.000  0.000  0.000  0.077
  7  0.042  0.012  0.012  0.012  0.000  0.000  0.000  0.000  0.000  0.077
  8  0.042  0.012  0.012  0.012  0.000  0.000  0.000  0.000  0.000  0.077
tot  0.297  0.071  0.071  0.071  0.000  0.000  0.000  0.000  0.000  0.510
 
band  18 # energy   14.52856054 # occ.  0.00000000
 
ion      s     py     pz     px    dxy    dyz    dz2    dxz    dx2    tot
  1  0.029  0.008  0.015  0.001  0.000  0.000  0.000  0.000  0.000  0.053
  2  0.002  0.009  0.005  0.013  0.000  0.000  0.000  0.000  0.000  0.030
  3  0.008  0.018  0.003  0.006  0.000  0.000  0.000  0.000  0.000  0.035
  4  0.016  0.003  0.021  0.002  0.000  0.000  0.000  0.000  0.000  0.041
  5  0.033  0.013  0.008  0.027  0.000  0.000  0.000  0.000  0.000  0.080
  6  0.009  0.002  0.003  0.017  0.000  0.000  0.000  0.000  0.000  0.031
  7  0.003  0.002  0.000  0.013  0.000  0.000  0.000  0.000  0.000  0.018
  8  0.018  0.009  0.001  0.021  0.000  0.000  0.000  0.000  0.000  0.049
tot  0.117  0.065  0.055  0.100  0.000  0.000  0.000  0.000  0.000  0.337
 
band  19 # energy   14.52861448 # occ.  0.00000000
 
ion      s     py     pz     px    dxy    dyz    dz2    dxz    dx2    tot
  1  0.010  0.001  0.003  0.023  0.000  0.000  0.000  0.000  0.000  0.037
  2  0.036  0.011  0.001  0.011  0.000  0.000  0.000  0.000  0.000  0.059
  3  0.000  0.005  0.017  0.005  0.000  0.000  0.000  0.000  0.000  0.028
  4  0.010  0.023  0.003  0.001  0.000  0.000  0.000  0.000  0.000  0.036
  5  0.012  0.007  0.018  0.000  0.000  0.000  0.000  0.000  0.000  0.037
  6  0.000  0.002  0.010  0.002  0.000  0.000  0.000  0.000  0.000  0.013
  7  0.040  0.013  0.028  0.013  0.000  0.000  0.000  0.000  0.000  0.094
  8  0.011  0.000  0.017  0.007  0.000  0.000  0.000  0.000  0.000  0.035
tot  0.118  0.062  0.096  0.062  0.000  0.000  0.000  0.000  0.000  0.339
 
band  20 # energy   14.52862191 # occ.  0.00000000
 
ion      s     py     pz     px    dxy    dyz    dz2    dxz    dx2    tot
  1  0.002  0.017  0.009  0.002  0.000  0.000  0.000  0.000  0.000  0.030
  2  0.004  0.006  0.020  0.001  0.000  0.000  0.000  0.000  0.000  0.031
  3  0.034  0.002  0.006  0.015  0.000  0.000  0.000  0.000  0.000  0.057
  4  0.016  0.000  0.002  0.023  0.000  0.000  0.000  0.000  0.000  0.042
  5  0.002  0.009  0.004  0.002  0.000  0.000  0.000  0.000  0.000  0.018
  6  0.038  0.025  0.016  0.010  0.000  0.000  0.000  0.000  0.000  0.090
  7  0.004  0.013  0.001  0.003  0.000  0.000  0.000  0.000  0.000  0.022
  8  0.018  0.019  0.011  0.001  0.000  0.000  0.000  0.000  0.000  0.050
tot  0.118  0.093  0.069  0.058  0.000  0.000  0.000  0.000  0.000  0.339
 
band  21 # energy   16.44466883 # occ.  0.00000000
 
ion      s     py     pz     px    dxy    dyz    dz2    dxz    dx2    tot
  1  0.072  0.001  0.000  0.001  0.000  0.000  0.000  0.000  0.000  0.075
  2  0.004  0.000  0.000  0.001  0.000  0.000  0.000  0.000  0.000  0.005
  3  0.019  0.000  0.000  0.001  0.000  0.000  0.000  0.000  0.000  0.020
  4  0.032  0.000  0.000  0.001  0.000  0.000  0.000  0.000  0.000  0.034
  5  0.006  0.014  0.024  0.004  0.000  0.000  0.000  0.000  0.000  0.048
  6  0.002  0.059  0.003  0.029  0.000  0.000  0.000  0.000  0.000  0.093
  7  0.000  0.027  0.015  0.062  0.000  0.000  0.000  0.000  0.000  0.105
  8  0.003  0.003  0.058  0.018  0.000  0.000  0.000  0.000  0.000  0.082
tot  0.139  0.105  0.101  0.118  0.000  0.000  0.000  0.000  0.000  0.463
 
