<?xml version="1.0" encoding="ISO-8859-1"?>
<modeling>
 <generator>
  <i name="program" type="string">vasp </i>
  <i name="version" type="string">5.2.2  </i>
  <i name="subversion" type="string">15Apr09 complex  parallel </i>
  <i name="platform" type="string">LinuxIFC </i>
  <i name="date" type="string">2009 12 03 </i>
  <i name="time" type="string">11:58:54 </i>
 </generator>
 <incar>
  <i type="string" name="SYSTEM"> Au, FCC</i>
  <i type="int" name="ISTART">     0</i>
  <i type="string" name="PREC">normal ! set fft mesh, cutoffs</i>
  <i type="string" name="ALGO"> Fast   ! use fast algorithm for electro</i>
  <i type="int" name="ISPIN">     1</i>
  <i name="EDIFF">      0.00010000</i>
  <i name="ENCUT">    350.00000000</i>
  <i type="int" name="ISMEAR">     0</i>
  <i name="SIGMA">      0.10000000</i>
  <i type="int" name="NWRITE">     1</i>
  <i type="logical" name="LWAVE"> F  </i>
  <i type="logical" name="LCHARG"> T  </i>
  <i type="logical" name="LVTOT"> F  </i>
  <i type="logical" name="LORBIT"> F  </i>
  <i type="logical" name="LPEAD"> F  </i>
  <i type="logical" name="LCALCPOL"> F  </i>
  <i type="logical" name="LCALCEPS"> F  </i>
  <v name="EFIELD_PEAD">      0.00000000      0.00000000      0.00000000</v>
  <i type="logical" name="LEFG"> F  </i>
 </incar>
 <kpoints>
  <generation param="Monkhorst-Pack">
   <v type="int" name="divisions">       2        2        2 </v>
   <v name="usershift">      0.00000000       0.00000000       0.00000000 </v>
   <v name="genvec1">      0.50000000       0.00000000       0.00000000 </v>
   <v name="genvec2">      0.00000000       0.50000000       0.00000000 </v>
   <v name="genvec3">      0.00000000       0.00000000       0.50000000 </v>
   <v name="shift">      0.50000000       0.50000000       0.50000000 </v>
  </generation>
  <varray name="kpointlist" >
   <v>       0.25000000       0.25000000       0.25000000 </v>
  </varray>
  <varray name="weights" >
   <v>       1.00000000 </v>
  </varray>
 </kpoints>
 <parameters>
  <separator name="general" >
   <i type="string" name="SYSTEM">Au, FCC</i>
   <i type="logical" name="LCOMPAT"> F  </i>
  </separator>
  <separator name="electronic" >
   <i type="string" name="PREC">normal</i>
   <i name="ENMAX">    350.00000000</i>
   <i name="ENAUG">    605.39200000</i>
   <i name="EDIFF">      0.00010000</i>
   <i type="int" name="IALGO">    68</i>
   <i type="int" name="IWAVPR">    10</i>
   <i type="int" name="NBANDS">    21</i>
   <i name="NELECT">     32.00000000</i>
   <separator name="electronic smearing" >
    <i type="int" name="ISMEAR">     0</i>
    <i name="SIGMA">      0.10000000</i>
   </separator>
   <separator name="electronic projectors" >
    <i type="logical" name="LREAL"> F  </i>
    <v name="ROPT">      0.00000000      0.00000000</v>
    <i type="int" name="LMAXPAW">  -100</i>
    <i type="int" name="LMAXMIX">     2</i>
   </separator>
   <separator name="electronic startup" >
    <i type="int" name="ISTART">     0</i>
    <i type="int" name="ICHARG">     2</i>
    <i type="int" name="INIWAV">     1</i>
   </separator>
   <separator name="electronic spin" >
    <i type="int" name="ISPIN">     1</i>
    <i type="logical" name="LNONCOLLINEAR"> F  </i>
    <v name="MAGMOM">      1.00000000      1.00000000      1.00000000      1.00000000      1.00000000      1.00000000      1.00000000      1.00000000</v>
    <i name="NUPDOWN">     -1.00000000</i>
    <i type="logical" name="LSORBIT"> F  </i>
    <v name="SAXIS">      0.00000000      0.00000000      1.00000000</v>
    <i type="logical" name="LSPIRAL"> F  </i>
    <v name="QSPIRAL">      0.00000000      0.00000000      0.00000000</v>
    <i type="logical" name="LZEROZ"> F  </i>
   </separator>
   <separator name="electronic exchange-correlation" >
    <i type="logical" name="LASPH"> F  </i>
    <i type="logical" name="LMETAGGA"> F  </i>
   </separator>
   <separator name="electronic convergence" >
    <i type="int" name="NELM">    60</i>
    <i type="int" name="NELMDL">    -5</i>
    <i type="int" name="NELMIN">     2</i>
    <i name="ENINI">    350.00000000</i>
    <separator name="electronic convergence detail" >
     <i type="logical" name="LDIAG"> T  </i>
     <i name="WEIMIN">      0.00000000</i>
     <i name="EBREAK">      0.00000119</i>
     <i name="DEPER">      0.30000000</i>
     <i type="int" name="NRMM">     4</i>
     <i name="TIME">      0.40000000</i>
    </separator>
   </separator>
   <separator name="electronic mixer" >
    <i name="AMIX">      0.40000000</i>
    <i name="BMIX">      1.00000000</i>
    <i name="AMIN">      0.10000000</i>
    <i name="AMIX_MAG">      1.60000000</i>
    <i name="BMIX_MAG">      1.00000000</i>
    <separator name="electronic mixer details" >
     <i type="int" name="IMIX">     4</i>
     <i type="int" name="MAXMIX">   -45</i>
     <i name="WC">    100.00000000</i>
     <i type="int" name="INIMIX">     1</i>
     <i type="int" name="MIXPRE">     1</i>
     <i type="int" name="MREMOVE">     5</i>
    </separator>
   </separator>
   <separator name="electronic dipolcorrection" >
    <i type="logical" name="LDIPOL"> F  </i>
    <i type="logical" name="LMONO"> F  </i>
    <i type="int" name="IDIPOL">     0</i>
    <i name="EPSILON">      1.00000000</i>
    <v name="DIPOL">   -100.00000000   -100.00000000   -100.00000000</v>
    <i name="EFIELD">      0.00000000</i>
   </separator>
  </separator>
  <separator name="grids" >
   <i type="int" name="NGX">    20</i>
   <i type="int" name="NGY">    20</i>
   <i type="int" name="NGZ">    20</i>
   <i type="int" name="NGXF">    40</i>
   <i type="int" name="NGYF">    40</i>
   <i type="int" name="NGZF">    40</i>
   <i type="logical" name="ADDGRID"> F  </i>
  </separator>
  <separator name="ionic" >
   <i type="int" name="NSW">     0</i>
   <i type="int" name="IBRION">    -1</i>
   <i type="int" name="ISIF">     2</i>
   <i name="PSTRESS">      0.00000000</i>
   <i name="EDIFFG">      0.00100000</i>
   <i type="int" name="NFREE">     0</i>
   <i name="POTIM">      0.50000000</i>
   <i name="SMASS">     -3.00000000</i>
  </separator>
  <separator name="ionic md" >
   <i name="TEBEG">      0.00010000</i>
   <i name="TEEND">      0.00010000</i>
   <i type="int" name="NBLOCK">     1</i>
   <i type="int" name="KBLOCK">     1</i>
   <i type="int" name="NPACO">   256</i>
   <i name="APACO">     16.00000000</i>
  </separator>
  <separator name="symmetry" >
   <i type="int" name="ISYM">     2</i>
   <i name="SYMPREC">      0.00001000</i>
  </separator>
  <separator name="dos" >
   <i type="logical" name="LORBIT"> F  </i>
   <v name="RWIGS">     -1.00000000     -1.00000000</v>
   <i type="int" name="NEDOS">   301</i>
   <i name="EMIN">     10.00000000</i>
   <i name="EMAX">    -10.00000000</i>
   <i name="EFERMI">      0.00000000</i>
  </separator>
  <separator name="writing" >
   <i type="int" name="NWRITE">     1</i>
   <i type="logical" name="LWAVE"> F  </i>
   <i type="logical" name="LCHARG"> T  </i>
   <i type="logical" name="LPARD"> F  </i>
   <i type="logical" name="LVTOT"> F  </i>
   <i type="logical" name="LELF"> F  </i>
   <i type="logical" name="LOPTICS"> F  </i>
   <v name="STM">      0.00000000      0.00000000      0.00000000      0.00000000      0.00000000</v>
  </separator>
  <separator name="performance" >
   <i type="int" name="NPAR">     1</i>
   <i type="int" name="NSIM">     4</i>
   <i type="int" name="NBLK">    32</i>
   <i type="logical" name="LPLANE"> T  </i>
   <i type="logical" name="LSCALAPACK"> F  </i>
   <i type="logical" name="LSCAAWARE"> F  </i>
   <i type="logical" name="LSCALU"> F  </i>
   <i type="logical" name="LASYNC"> F  </i>
  </separator>
  <separator name="miscellaneous" >
   <i type="int" name="IDIOT">     3</i>
   <i type="logical" name="LMUSIC"> F  </i>
   <v name="POMASS">     24.30500000     16.00000000</v>
   <i type="logical" name="LCORR"> T  </i>
  </separator>
  <i type="logical" name="LREAL_COMPAT"> F  </i>
  <i type="logical" name="GGA_COMPAT"> T  </i>
  <i type="logical" name="LBERRY"> F  </i>
  <i type="int" name="ICORELEVEL">     0</i>
  <i type="logical" name="LDAU"> F  </i>
  <i type="int" name="I_CONSTRAINED_M">     0</i>
  <separator name="electronic exchange-correlation" >
   <i type="string" name="GGA">--</i>
   <i type="int" name="VOSKOWN">     0</i>
   <i type="logical" name="LHFCALC"> F  </i>
   <i type="logical" name="LHFONE"> F  </i>
   <i type="logical" name="LRHFCALC"> F  </i>
   <i type="logical" name="LTHOMAS"> F  </i>
   <i type="logical" name="LMODELHF"> F  </i>
   <i name="ENCUTFOCK">      0.00000000</i>
   <i name="ENCUT4O">     -1.00000000</i>
   <i type="int" name="EXXOEP">     0</i>
   <i type="int" name="FOURORBIT">     0</i>
   <i name="AEXX">      0.00000000</i>
   <i name="HFALPHA">      0.00000000</i>
   <i name="ALDAX">      1.00000000</i>
   <i name="AGGAX">      1.00000000</i>
   <i name="ALDAC">      1.00000000</i>
   <i name="AGGAC">      1.00000000</i>
   <i type="int" name="NKREDX">     1</i>
   <i type="int" name="NKREDY">     1</i>
   <i type="int" name="NKREDZ">     1</i>
   <i type="logical" name="SHIFTRED"> F  </i>
   <i type="logical" name="ODDONLY"> F  </i>
   <i type="logical" name="EVENONLY"> F  </i>
   <i type="int" name="LMAXFOCK">     0</i>
   <i type="int" name="NMAXFOCKAE">     0</i>
   <i name="HFSCREEN">      0.00000000</i>
   <i name="HFSCREENC">      0.00000000</i>
  </separator>
  <separator name="model GW" >
   <i type="int" name="MODEL_GW">     0</i>
   <i name="MODEL_EPS0">      5.60117145</i>
   <i name="MODEL_ALPHA">      1.00000000</i>
  </separator>
  <separator name="linear response parameters" >
   <i type="logical" name="LEPSILON"> F  </i>
   <i type="logical" name="LRPA"> F  </i>
   <i type="logical" name="LNABLA"> F  </i>
   <i type="logical" name="LVEL"> F  </i>
   <i type="int" name="KINTER">     0</i>
   <i name="CSHIFT">      0.10000000</i>
   <i name="OMEGAMAX">     -1.00000000</i>
  </separator>
  <separator name="orbital magnetization" >
   <i type="logical" name="ORBITALMAG"> F  </i>
   <i type="logical" name="LMAGBLOCH"> F  </i>
   <i type="logical" name="LCHIMAG"> F  </i>
   <i type="logical" name="LGAUGE"> T  </i>
   <i type="int" name="MAGATOM">     0</i>
   <v name="MAGDIPOL">      0.00000000      0.00000000      0.00000000</v>
   <v name="AVECCONST">      0.00000000      0.00000000      0.00000000</v>
  </separator>
  <separator name="response functions" >
   <i type="logical" name="LRPA"> T  </i>
   <i type="logical" name="LTCTE"> F  </i>
   <i type="logical" name="LTETE"> F  </i>
   <i type="logical" name="L2ORDER"> F  </i>
   <i type="logical" name="LGWLF"> F  </i>
   <i name="ENCUTGW">    233.33333333</i>
   <i name="ENCUTGWSOFT">     -2.00000000</i>
   <i name="ENCUTLF">     -1.00000000</i>
   <i type="int" name="LMAXMP2">    -1</i>
   <i name="SCISSOR">      0.00000000</i>
   <i type="int" name="NOMEGA">     0</i>
   <i type="int" name="NOMEGAR">     0</i>
   <i type="int" name="NBANDSGW">    -1</i>
   <i type="int" name="NBANDSLF">    -1</i>
   <i type="int" name="NELM">     1</i>
   <i type="int" name="DIM">     3</i>
   <i type="int" name="ANTIRES">     0</i>
   <i type="logical" name="LUSEW"> F  </i>
   <i name="OMEGAMAX">    -30.00000000</i>
   <i name="OMEGATL">   -200.00000000</i>
   <i type="int" name="OMEGAGRID">     0</i>
   <i name="CSHIFT">     -0.10000000</i>
   <i type="logical" name="SELFENERGY"> F  </i>
   <i type="logical" name="LSPECTRAL"> F  </i>
   <i type="logical" name="ODDONLYGW"> F  </i>
   <i type="logical" name="EVENONLYGW"> F  </i>
   <i type="int" name="NKREDLFX">     1</i>
   <i type="int" name="NKREDLFY">     1</i>
   <i type="int" name="NKREDLFZ">     1</i>
   <i type="int" name="MAXMEM">  1024</i>
   <i type="int" name="TELESCOPE">     0</i>
  </separator>
 </parameters>
 <atominfo>
  <atoms>       8 </atoms>
  <types>       2 </types>
  <array name="atoms" >
   <dimension dim="1">ion</dimension>
   <field type="string">element</field>
   <field type="int">atomtype</field>
   <set>
    <rc><c>Mg</c><c>   1</c></rc>
    <rc><c>Mg</c><c>   1</c></rc>
    <rc><c>Mg</c><c>   1</c></rc>
    <rc><c>Mg</c><c>   1</c></rc>
    <rc><c>O </c><c>   2</c></rc>
    <rc><c>O </c><c>   2</c></rc>
    <rc><c>O </c><c>   2</c></rc>
    <rc><c>O </c><c>   2</c></rc>
   </set>
  </array>
  <array name="atomtypes" >
   <dimension dim="1">type</dimension>
   <field type="int">atomspertype</field>
   <field type="string">element</field>
   <field>mass</field>
   <field>valence</field>
   <field type="string">pseudopotential</field>
   <set>
    <rc><c>   4</c><c>Mg</c><c>     24.30500000</c><c>      2.00000000</c><c> PAW_GGA Mg 05Jan2001                   </c></rc>
    <rc><c>   4</c><c>O </c><c>     16.00000000</c><c>      6.00000000</c><c> PAW_GGA O 05Jan2001                    </c></rc>
   </set>
  </array>
 </atominfo>
 <structure name="initialpos" >
  <crystal>
   <varray name="basis" >
    <v>       4.21120000       0.00000000       0.00000000 </v>
    <v>       0.00000000       4.21120000       0.00000000 </v>
    <v>       0.00000000       0.00000000       4.21120000 </v>
   </varray>
   <i name="volume">     74.68228595 </i>
   <varray name="rec_basis" >
    <v>       0.23746201       0.00000000       0.00000000 </v>
    <v>       0.00000000       0.23746201       0.00000000 </v>
    <v>       0.00000000       0.00000000       0.23746201 </v>
   </varray>
  </crystal>
  <varray name="positions" >
   <v>       0.50000000       0.50000000       0.50000000 </v>
   <v>       0.50000000       0.00000000       0.00000000 </v>
   <v>       0.00000000       0.50000000       0.00000000 </v>
   <v>       0.00000000       0.00000000       0.50000000 </v>
   <v>       0.00000000       0.00000000       0.00000000 </v>
   <v>       0.50000000       0.00000000       0.50000000 </v>
   <v>       0.00000000       0.50000000       0.50000000 </v>
   <v>       0.50000000       0.50000000       0.00000000 </v>
  </varray>
 </structure>
 <calculation>
  <scstep>
   <time name="dav">    0.11    0.14</time>
   <time name="total">    0.27    0.30</time>
   <energy>
    <i name="alphaZ">     24.55440828 </i>
    <i name="ewald">  -1433.05838600 </i>
    <i name="hartreedc">   -484.96310391 </i>
    <i name="XCdc">     81.67880928 </i>
    <i name="pawpsdc">   1031.84001649 </i>
    <i name="pawaedc">   -995.29430929 </i>
    <i name="eentropy">      0.00000000 </i>
    <i name="bandstr">     73.99682185 </i>
    <i name="atom">   1822.93036668 </i>
    <i name="e_fr_energy">    121.68462339 </i>
    <i name="e_wo_entrp">    121.68462339 </i>
    <i name="e_0_energy">    121.68462339 </i>
   </energy>
  </scstep>
  <scstep>
   <time name="dav">    0.14    0.14</time>
   <time name="total">    0.14    0.15</time>
   <energy>
    <i name="e_fr_energy">    -47.70616138 </i>
    <i name="e_wo_entrp">    -47.70616138 </i>
    <i name="e_0_energy">    -47.70616138 </i>
   </energy>
  </scstep>
  <scstep>
   <time name="dav">    0.13    0.13</time>
   <time name="total">    0.13    0.95</time>
   <energy>
    <i name="e_fr_energy">    -54.62873106 </i>
    <i name="e_wo_entrp">    -54.62873106 </i>
    <i name="e_0_energy">    -54.62873106 </i>
   </energy>
  </scstep>
  <scstep>
   <time name="dav">    0.14    0.14</time>
   <time name="total">    0.14    0.14</time>
   <energy>
    <i name="e_fr_energy">    -54.67580607 </i>
    <i name="e_wo_entrp">    -54.67580607 </i>
    <i name="e_0_energy">    -54.67580607 </i>
   </energy>
  </scstep>
  <scstep>
   <time name="dav">    0.16    0.16</time>
   <time name="total">    0.20    0.24</time>
   <energy>
    <i name="e_fr_energy">    -54.67638951 </i>
    <i name="e_wo_entrp">    -54.67638951 </i>
    <i name="e_0_energy">    -54.67638951 </i>
   </energy>
  </scstep>
  <scstep>
   <time name="diag">    0.02    0.02</time>
   <time name="diis">    0.13    0.13</time>
   <time name="orth">    0.00    0.00</time>
   <time name="total">    0.36    0.36</time>
   <energy>
    <i name="e_fr_energy">    -48.88344528 </i>
    <i name="e_wo_entrp">    -48.88344528 </i>
    <i name="e_0_energy">    -48.88344528 </i>
   </energy>
  </scstep>
  <scstep>
   <time name="diag">    0.02    0.02</time>
   <time name="diis">    0.12    0.12</time>
   <time name="orth">    0.00    0.00</time>
   <time name="total">    0.35    0.35</time>
   <energy>
    <i name="e_fr_energy">    -48.78972395 </i>
    <i name="e_wo_entrp">    -48.78972395 </i>
    <i name="e_0_energy">    -48.78972395 </i>
   </energy>
  </scstep>
  <scstep>
   <time name="diag">    0.02    0.02</time>
   <time name="diis">    0.13    0.13</time>
   <time name="orth">    0.00    0.00</time>
   <time name="total">    0.35    0.35</time>
   <energy>
    <i name="e_fr_energy">    -48.76138086 </i>
    <i name="e_wo_entrp">    -48.76138086 </i>
    <i name="e_0_energy">    -48.76138086 </i>
   </energy>
  </scstep>
  <scstep>
   <time name="diag">    0.02    0.02</time>
   <time name="diis">    0.14    0.14</time>
   <time name="orth">    0.00    0.00</time>
   <time name="total">    0.37    0.37</time>
   <energy>
    <i name="e_fr_energy">    -48.76090441 </i>
    <i name="e_wo_entrp">    -48.76090441 </i>
    <i name="e_0_energy">    -48.76090441 </i>
   </energy>
  </scstep>
  <scstep>
   <time name="diag">    0.02    0.02</time>
   <time name="diis">    0.12    0.12</time>
   <time name="orth">    0.00    0.00</time>
   <time name="total">    0.34    0.34</time>
   <energy>
    <i name="e_fr_energy">    -48.75644529 </i>
    <i name="e_wo_entrp">    -48.75644529 </i>
    <i name="e_0_energy">    -48.75644529 </i>
   </energy>
  </scstep>
  <scstep>
   <time name="diag">    0.02    0.02</time>
   <time name="diis">    0.13    0.13</time>
   <time name="orth">    0.00    0.00</time>
   <time name="total">    0.36    0.36</time>
   <energy>
    <i name="e_fr_energy">    -48.75614296 </i>
    <i name="e_wo_entrp">    -48.75614296 </i>
    <i name="e_0_energy">    -48.75614296 </i>
   </energy>
  </scstep>
  <scstep>
   <time name="diag">    0.02    0.02</time>
   <time name="diis">    0.07    0.07</time>
   <time name="orth">    0.00    0.00</time>
   <time name="total">    0.25    0.25</time>
   <energy>
    <i name="alphaZ">     24.55440828 </i>
    <i name="ewald">  -1433.05838600 </i>
    <i name="hartreedc">   -564.13996412 </i>
    <i name="XCdc">     87.74801355 </i>
    <i name="pawpsdc">   1298.94877734 </i>
    <i name="pawaedc">  -1263.11178765 </i>
    <i name="eentropy">      0.00000000 </i>
    <i name="bandstr">    -22.62756628 </i>
    <i name="atom">   1822.93036668 </i>
    <i name="e_fr_energy">    -48.75613820 </i>
    <i name="e_wo_entrp">    -48.75613820 </i>
    <i name="e_0_energy">    -48.75613820 </i>
   </energy>
  </scstep>
  <structure>
   <crystal>
    <varray name="basis" >
     <v>       4.21120000       0.00000000       0.00000000 </v>
     <v>       0.00000000       4.21120000       0.00000000 </v>
     <v>       0.00000000       0.00000000       4.21120000 </v>
    </varray>
    <i name="volume">     74.68228595 </i>
    <varray name="rec_basis" >
     <v>       0.23746201       0.00000000       0.00000000 </v>
     <v>       0.00000000       0.23746201       0.00000000 </v>
     <v>       0.00000000       0.00000000       0.23746201 </v>
    </varray>
   </crystal>
   <varray name="positions" >
    <v>       0.50000000       0.50000000       0.50000000 </v>
    <v>       0.50000000       0.00000000       0.00000000 </v>
    <v>       0.00000000       0.50000000       0.00000000 </v>
    <v>       0.00000000       0.00000000       0.50000000 </v>
    <v>       0.00000000       0.00000000       0.00000000 </v>
    <v>       0.50000000       0.00000000       0.50000000 </v>
    <v>       0.00000000       0.50000000       0.50000000 </v>
    <v>       0.50000000       0.50000000       0.00000000 </v>
   </varray>
  </structure>
  <varray name="forces" >
   <v>       0.00000000       0.00000000       0.00000000 </v>
   <v>       0.00000000       0.00000000       0.00000000 </v>
   <v>       0.00000000       0.00000000       0.00000000 </v>
   <v>       0.00000000       0.00000000       0.00000000 </v>
   <v>       0.00000000       0.00000000       0.00000000 </v>
   <v>       0.00000000       0.00000000       0.00000000 </v>
   <v>       0.00000000       0.00000000       0.00000000 </v>
   <v>       0.00000000       0.00000000       0.00000000 </v>
  </varray>
  <varray name="stress" >
   <v>    -112.25059773       0.00000000       0.00000000 </v>
   <v>       0.00000000    -112.25059773       0.00000000 </v>
   <v>       0.00000000       0.00000000    -112.25059773 </v>
  </varray>
  <energy>
   <i name="e_fr_energy">    -48.75613820 </i>
   <i name="e_wo_entrp">    -48.75613820 </i>
   <i name="e_0_energy">      0.00000000 </i>
  </energy>
  <time name="totalsc">    3.94    4.87</time>
  <eigenvalues>
   <array>
    <dimension dim="1">band</dimension>
    <dimension dim="2">kpoint</dimension>
    <dimension dim="3">spin</dimension>
    <field>eigene</field>
    <field>occ</field>
    <set>
     <set comment="spin 1">
      <set comment="kpoint 1">
       <r>  -11.8721    1.0000 </r>
       <r>  -11.0543    1.0000 </r>
       <r>  -11.0543    1.0000 </r>
       <r>  -11.0543    1.0000 </r>
       <r>    0.9733    1.0000 </r>
       <r>    0.9733    1.0000 </r>
       <r>    0.9733    1.0000 </r>
       <r>    2.1138    1.0000 </r>
       <r>    2.8601    1.0000 </r>
       <r>    2.8601    1.0000 </r>
       <r>    2.8601    1.0000 </r>
       <r>    3.7531    1.0000 </r>
       <r>    3.7531    1.0000 </r>
       <r>    3.7531    1.0000 </r>
       <r>    4.4239    1.0000 </r>
       <r>    4.4239    1.0000 </r>
       <r>   11.9069    0.0000 </r>
       <r>   14.5286    0.0000 </r>
       <r>   14.5286    0.0000 </r>
       <r>   14.5286    0.0000 </r>
       <r>   16.4447    0.0000 </r>
      </set>
     </set>
    </set>
   </array>
  </eigenvalues>
  <separator name="orbital magnetization" >
   <v name="MAGDIPOLOUT">      0.00000000      0.00000000      0.00000000</v>
  </separator>
  <dos>
   <i name="efermi">      4.98908086 </i>
   <total>
    <array>
     <dimension dim="1">gridpoints</dimension>
     <dimension dim="2">spin</dimension>
     <field>energy</field>
     <field>total</field>
     <field>integrated</field>
     <set>
      <set comment="spin 1">
       <r> -13.2879   0.0000   0.0000 </r>
       <r> -13.1841   0.0000   0.0000 </r>
       <r> -13.0802   0.0000   0.0000 </r>
       <r> -12.9764   0.0000   0.0000 </r>
       <r> -12.8726   0.0000   0.0000 </r>
       <r> -12.7687   0.0000   0.0000 </r>
       <r> -12.6649   0.0000   0.0000 </r>
       <r> -12.5611   0.0000   0.0000 </r>
       <r> -12.4573   0.0000   0.0000 </r>
       <r> -12.3534   0.0000   0.0000 </r>
       <r> -12.2496   0.0000   0.0000 </r>
       <r> -12.1458   0.0010   0.0001 </r>
       <r> -12.0420   0.1557   0.0163 </r>
       <r> -11.9381   3.2152   0.3501 </r>
       <r> -11.8343  10.1757   1.4066 </r>
       <r> -11.7305   5.2792   1.9547 </r>
       <r> -11.6266   0.4308   1.9995 </r>
       <r> -11.5228   0.0050   2.0000 </r>
       <r> -11.4190   0.0000   2.0000 </r>
       <r> -11.3152   0.0065   2.0007 </r>
       <r> -11.2113   0.7565   2.0792 </r>
       <r> -11.1075  12.3016   3.3565 </r>
       <r> -11.0037  31.0372   6.5790 </r>
       <r> -10.8998  12.8511   7.9133 </r>
       <r> -10.7960   0.8275   7.9992 </r>
       <r> -10.6922   0.0075   8.0000 </r>
       <r> -10.5884   0.0000   8.0000 </r>
       <r> -10.4845   0.0000   8.0000 </r>
       <r> -10.3807   0.0000   8.0000 </r>
       <r> -10.2769   0.0000   8.0000 </r>
       <r> -10.1730   0.0000   8.0000 </r>
       <r> -10.0692   0.0000   8.0000 </r>
       <r>  -9.9654   0.0000   8.0000 </r>
       <r>  -9.8616   0.0000   8.0000 </r>
       <r>  -9.7577   0.0000   8.0000 </r>
       <r>  -9.6539   0.0000   8.0000 </r>
       <r>  -9.5501   0.0000   8.0000 </r>
       <r>  -9.4463   0.0000   8.0000 </r>
       <r>  -9.3424   0.0000   8.0000 </r>
       <r>  -9.2386   0.0000   8.0000 </r>
       <r>  -9.1348   0.0000   8.0000 </r>
       <r>  -9.0309   0.0000   8.0000 </r>
       <r>  -8.9271   0.0000   8.0000 </r>
       <r>  -8.8233   0.0000   8.0000 </r>
       <r>  -8.7195   0.0000   8.0000 </r>
       <r>  -8.6156   0.0000   8.0000 </r>
       <r>  -8.5118   0.0000   8.0000 </r>
       <r>  -8.4080   0.0000   8.0000 </r>
       <r>  -8.3041   0.0000   8.0000 </r>
       <r>  -8.2003   0.0000   8.0000 </r>
       <r>  -8.0965   0.0000   8.0000 </r>
       <r>  -7.9927   0.0000   8.0000 </r>
       <r>  -7.8888   0.0000   8.0000 </r>
       <r>  -7.7850   0.0000   8.0000 </r>
       <r>  -7.6812   0.0000   8.0000 </r>
       <r>  -7.5773   0.0000   8.0000 </r>
       <r>  -7.4735   0.0000   8.0000 </r>
       <r>  -7.3697   0.0000   8.0000 </r>
       <r>  -7.2659   0.0000   8.0000 </r>
       <r>  -7.1620   0.0000   8.0000 </r>
       <r>  -7.0582   0.0000   8.0000 </r>
       <r>  -6.9544   0.0000   8.0000 </r>
       <r>  -6.8506   0.0000   8.0000 </r>
       <r>  -6.7467   0.0000   8.0000 </r>
       <r>  -6.6429   0.0000   8.0000 </r>
       <r>  -6.5391   0.0000   8.0000 </r>
       <r>  -6.4352   0.0000   8.0000 </r>
       <r>  -6.3314   0.0000   8.0000 </r>
       <r>  -6.2276   0.0000   8.0000 </r>
       <r>  -6.1238   0.0000   8.0000 </r>
       <r>  -6.0199   0.0000   8.0000 </r>
       <r>  -5.9161   0.0000   8.0000 </r>
       <r>  -5.8123   0.0000   8.0000 </r>
       <r>  -5.7084   0.0000   8.0000 </r>
       <r>  -5.6046   0.0000   8.0000 </r>
       <r>  -5.5008   0.0000   8.0000 </r>
       <r>  -5.3970   0.0000   8.0000 </r>
       <r>  -5.2931   0.0000   8.0000 </r>
       <r>  -5.1893   0.0000   8.0000 </r>
       <r>  -5.0855   0.0000   8.0000 </r>
       <r>  -4.9816   0.0000   8.0000 </r>
       <r>  -4.8778   0.0000   8.0000 </r>
       <r>  -4.7740   0.0000   8.0000 </r>
       <r>  -4.6702   0.0000   8.0000 </r>
       <r>  -4.5663   0.0000   8.0000 </r>
       <r>  -4.4625   0.0000   8.0000 </r>
       <r>  -4.3587   0.0000   8.0000 </r>
       <r>  -4.2549   0.0000   8.0000 </r>
       <r>  -4.1510   0.0000   8.0000 </r>
       <r>  -4.0472   0.0000   8.0000 </r>
       <r>  -3.9434   0.0000   8.0000 </r>
       <r>  -3.8395   0.0000   8.0000 </r>
       <r>  -3.7357   0.0000   8.0000 </r>
       <r>  -3.6319   0.0000   8.0000 </r>
       <r>  -3.5281   0.0000   8.0000 </r>
       <r>  -3.4242   0.0000   8.0000 </r>
       <r>  -3.3204   0.0000   8.0000 </r>
       <r>  -3.2166   0.0000   8.0000 </r>
       <r>  -3.1127   0.0000   8.0000 </r>
       <r>  -3.0089   0.0000   8.0000 </r>
       <r>  -2.9051   0.0000   8.0000 </r>
       <r>  -2.8013   0.0000   8.0000 </r>
       <r>  -2.6974   0.0000   8.0000 </r>
       <r>  -2.5936   0.0000   8.0000 </r>
       <r>  -2.4898   0.0000   8.0000 </r>
       <r>  -2.3859   0.0000   8.0000 </r>
       <r>  -2.2821   0.0000   8.0000 </r>
       <r>  -2.1783   0.0000   8.0000 </r>
       <r>  -2.0745   0.0000   8.0000 </r>
       <r>  -1.9706   0.0000   8.0000 </r>
       <r>  -1.8668   0.0000   8.0000 </r>
       <r>  -1.7630   0.0000   8.0000 </r>
       <r>  -1.6592   0.0000   8.0000 </r>
       <r>  -1.5553   0.0000   8.0000 </r>
       <r>  -1.4515   0.0000   8.0000 </r>
       <r>  -1.3477   0.0000   8.0000 </r>
       <r>  -1.2438   0.0000   8.0000 </r>
       <r>  -1.1400   0.0000   8.0000 </r>
       <r>  -1.0362   0.0000   8.0000 </r>
       <r>  -0.9324   0.0000   8.0000 </r>
       <r>  -0.8285   0.0000   8.0000 </r>
       <r>  -0.7247   0.0000   8.0000 </r>
       <r>  -0.6209   0.0000   8.0000 </r>
       <r>  -0.5170   0.0000   8.0000 </r>
       <r>  -0.4132   0.0000   8.0000 </r>
       <r>  -0.3094   0.0000   8.0000 </r>
       <r>  -0.2056   0.0000   8.0000 </r>
       <r>  -0.1017   0.0000   8.0000 </r>
       <r>   0.0021   0.0000   8.0000 </r>
       <r>   0.1059   0.0000   8.0000 </r>
       <r>   0.2097   0.0000   8.0000 </r>
       <r>   0.3136   0.0000   8.0000 </r>
       <r>   0.4174   0.0000   8.0000 </r>
       <r>   0.5212   0.0000   8.0000 </r>
       <r>   0.6251   0.0000   8.0000 </r>
       <r>   0.7289   0.0158   8.0016 </r>
       <r>   0.8327   1.3357   8.1403 </r>
       <r>   0.9365  16.0734   9.8092 </r>
       <r>   1.0404  30.4538  12.9711 </r>
       <r>   1.1442   9.4567  13.9530 </r>
       <r>   1.2480   0.4496  13.9997 </r>
       <r>   1.3519   0.0030  14.0000 </r>
       <r>   1.4557   0.0000  14.0000 </r>
       <r>   1.5595   0.0000  14.0000 </r>
       <r>   1.6633   0.0000  14.0000 </r>
       <r>   1.7672   0.0000  14.0000 </r>
       <r>   1.8710   0.0057  14.0006 </r>
       <r>   1.9748   0.4697  14.0494 </r>
       <r>   2.0787   5.4874  14.6191 </r>
       <r>   2.1825  10.1077  15.6686 </r>
       <r>   2.2863   3.0506  15.9853 </r>
       <r>   2.3901   0.1407  15.9999 </r>
       <r>   2.4940   0.0009  16.0000 </r>
       <r>   2.5978   0.0060  16.0006 </r>
       <r>   2.7016   0.7156  16.0749 </r>
       <r>   2.8054  11.9698  17.3177 </r>
       <r>   2.9093  31.0213  20.5386 </r>
       <r>   3.0131  13.1933  21.9084 </r>
       <r>   3.1169   0.8738  21.9992 </r>
       <r>   3.2208   0.0081  22.0000 </r>
       <r>   3.3246   0.0000  22.0000 </r>
       <r>   3.4284   0.0001  22.0000 </r>
       <r>   3.5322   0.0516  22.0054 </r>
       <r>   3.6361   2.7783  22.2938 </r>
       <r>   3.7399  21.7878  24.5560 </r>
       <r>   3.8437  27.3938  27.4002 </r>
       <r>   3.9476   5.6043  27.9821 </r>
       <r>   4.0514   0.1714  27.9999 </r>
       <r>   4.1552   0.0035  28.0003 </r>
       <r>   4.2590   0.3770  28.0394 </r>
       <r>   4.3629   7.0934  28.7759 </r>
       <r>   4.4667  20.5509  30.9097 </r>
       <r>   4.5705   9.7665  31.9237 </r>
       <r>   4.6744   0.7269  31.9992 </r>
       <r>   4.7782   0.0076  32.0000 </r>
       <r>   4.8820   0.0000  32.0000 </r>
       <r>   4.9858   0.0000  32.0000 </r>
       <r>   5.0897   0.0000  32.0000 </r>
       <r>   5.1935   0.0000  32.0000 </r>
       <r>   5.2973   0.0000  32.0000 </r>
       <r>   5.4011   0.0000  32.0000 </r>
       <r>   5.5050   0.0000  32.0000 </r>
       <r>   5.6088   0.0000  32.0000 </r>
       <r>   5.7126   0.0000  32.0000 </r>
       <r>   5.8165   0.0000  32.0000 </r>
       <r>   5.9203   0.0000  32.0000 </r>
       <r>   6.0241   0.0000  32.0000 </r>
       <r>   6.1279   0.0000  32.0000 </r>
       <r>   6.2318   0.0000  32.0000 </r>
       <r>   6.3356   0.0000  32.0000 </r>
       <r>   6.4394   0.0000  32.0000 </r>
       <r>   6.5433   0.0000  32.0000 </r>
       <r>   6.6471   0.0000  32.0000 </r>
       <r>   6.7509   0.0000  32.0000 </r>
       <r>   6.8547   0.0000  32.0000 </r>
       <r>   6.9586   0.0000  32.0000 </r>
       <r>   7.0624   0.0000  32.0000 </r>
       <r>   7.1662   0.0000  32.0000 </r>
       <r>   7.2701   0.0000  32.0000 </r>
       <r>   7.3739   0.0000  32.0000 </r>
       <r>   7.4777   0.0000  32.0000 </r>
       <r>   7.5815   0.0000  32.0000 </r>
       <r>   7.6854   0.0000  32.0000 </r>
       <r>   7.7892   0.0000  32.0000 </r>
       <r>   7.8930   0.0000  32.0000 </r>
       <r>   7.9968   0.0000  32.0000 </r>
       <r>   8.1007   0.0000  32.0000 </r>
       <r>   8.2045   0.0000  32.0000 </r>
       <r>   8.3083   0.0000  32.0000 </r>
       <r>   8.4122   0.0000  32.0000 </r>
       <r>   8.5160   0.0000  32.0000 </r>
       <r>   8.6198   0.0000  32.0000 </r>
       <r>   8.7236   0.0000  32.0000 </r>
       <r>   8.8275   0.0000  32.0000 </r>
       <r>   8.9313   0.0000  32.0000 </r>
       <r>   9.0351   0.0000  32.0000 </r>
       <r>   9.1390   0.0000  32.0000 </r>
       <r>   9.2428   0.0000  32.0000 </r>
       <r>   9.3466   0.0000  32.0000 </r>
       <r>   9.4504   0.0000  32.0000 </r>
       <r>   9.5543   0.0000  32.0000 </r>
       <r>   9.6581   0.0000  32.0000 </r>
       <r>   9.7619   0.0000  32.0000 </r>
       <r>   9.8658   0.0000  32.0000 </r>
       <r>   9.9696   0.0000  32.0000 </r>
       <r>  10.0734   0.0000  32.0000 </r>
       <r>  10.1772   0.0000  32.0000 </r>
       <r>  10.2811   0.0000  32.0000 </r>
       <r>  10.3849   0.0000  32.0000 </r>
       <r>  10.4887   0.0000  32.0000 </r>
       <r>  10.5925   0.0000  32.0000 </r>
       <r>  10.6964   0.0000  32.0000 </r>
       <r>  10.8002   0.0000  32.0000 </r>
       <r>  10.9040   0.0000  32.0000 </r>
       <r>  11.0079   0.0000  32.0000 </r>
       <r>  11.1117   0.0000  32.0000 </r>
       <r>  11.2155   0.0000  32.0000 </r>
       <r>  11.3193   0.0000  32.0000 </r>
       <r>  11.4232   0.0000  32.0000 </r>
       <r>  11.5270   0.0000  32.0000 </r>
       <r>  11.6308   0.0009  32.0001 </r>
       <r>  11.7347   0.1422  32.0149 </r>
       <r>  11.8385   3.0674  32.3333 </r>
       <r>  11.9423  10.1153  33.3836 </r>
       <r>  12.0461   5.4657  33.9511 </r>
       <r>  12.1500   0.4655  33.9994 </r>
       <r>  12.2538   0.0056  34.0000 </r>
       <r>  12.3576   0.0000  34.0000 </r>
       <r>  12.4615   0.0000  34.0000 </r>
       <r>  12.5653   0.0000  34.0000 </r>
       <r>  12.6691   0.0000  34.0000 </r>
       <r>  12.7729   0.0000  34.0000 </r>
       <r>  12.8768   0.0000  34.0000 </r>
       <r>  12.9806   0.0000  34.0000 </r>
       <r>  13.0844   0.0000  34.0000 </r>
       <r>  13.1882   0.0000  34.0000 </r>
       <r>  13.2921   0.0000  34.0000 </r>
       <r>  13.3959   0.0000  34.0000 </r>
       <r>  13.4997   0.0000  34.0000 </r>
       <r>  13.6036   0.0000  34.0000 </r>
       <r>  13.7074   0.0000  34.0000 </r>
       <r>  13.8112   0.0000  34.0000 </r>
       <r>  13.9150   0.0000  34.0000 </r>
       <r>  14.0189   0.0000  34.0000 </r>
       <r>  14.1227   0.0000  34.0000 </r>
       <r>  14.2265   0.0006  34.0001 </r>
       <r>  14.3304   0.1455  34.0152 </r>
       <r>  14.4342   5.1066  34.5454 </r>
       <r>  14.5380  26.7005  37.3176 </r>
       <r>  14.6418  22.6772  39.6722 </r>
       <r>  14.7457   3.0956  39.9936 </r>
       <r>  14.8495   0.0617  40.0000 </r>
       <r>  14.9533   0.0002  40.0000 </r>
       <r>  15.0571   0.0000  40.0000 </r>
       <r>  15.1610   0.0000  40.0000 </r>
       <r>  15.2648   0.0000  40.0000 </r>
       <r>  15.3686   0.0000  40.0000 </r>
       <r>  15.4725   0.0000  40.0000 </r>
       <r>  15.5763   0.0000  40.0000 </r>
       <r>  15.6801   0.0000  40.0000 </r>
       <r>  15.7839   0.0000  40.0000 </r>
       <r>  15.8878   0.0000  40.0000 </r>
       <r>  15.9916   0.0000  40.0000 </r>
       <r>  16.0954   0.0000  40.0000 </r>
       <r>  16.1993   0.0050  40.0005 </r>
       <r>  16.3031   0.4308  40.0453 </r>
       <r>  16.4069   5.2792  40.5934 </r>
       <r>  16.5107  10.1757  41.6499 </r>
       <r>  16.6146   3.2152  41.9837 </r>
       <r>  16.7184   0.1557  41.9999 </r>
       <r>  16.8222   0.0010  42.0000 </r>
       <r>  16.9261   0.0000  42.0000 </r>
       <r>  17.0299   0.0000  42.0000 </r>
       <r>  17.1337   0.0000  42.0000 </r>
       <r>  17.2375   0.0000  42.0000 </r>
       <r>  17.3414   0.0000  42.0000 </r>
       <r>  17.4452   0.0000  42.0000 </r>
       <r>  17.5490   0.0000  42.0000 </r>
       <r>  17.6528   0.0000  42.0000 </r>
       <r>  17.7567   0.0000  42.0000 </r>
       <r>  17.8605   0.0000  42.0000 </r>
      </set>
     </set>
    </array>
   </total>
   <partial>
    <array>
     <dimension dim="1">gridpoints</dimension>
     <dimension dim="2">spin</dimension>
     <dimension dim="3">ion</dimension>
     <field>energy</field>
     <field>  s</field>
     <field> py</field>
     <field> pz</field>
     <field> px</field>
     <field>dxy</field>
     <field>dyz</field>
     <field>dz2</field>
     <field>dxz</field>
     <field>dx2</field>
     <set>
      <set comment="ion 1">
       <set comment="spin 1">
        <r> -13.2879   0.0000   0.0000   0.0000   0.0000   0.0000   0.0000   0.0000   0.0000   0.0000 </r>
        <r> -13.1841   0.0000   0.0000   0.0000   0.0000   0.0000   0.0000   0.0000   0.0000   0.0000 </r>
        <r> -13.0802   0.0000   0.0000   0.0000   0.0000   0.0000   0.0000   0.0000   0.0000   0.0000 </r>
        <r> -12.9764   0.0000   0.0000   0.0000   0.0000   0.0000   0.0000   0.0000   0.0000   0.0000 </r>
        <r> -12.8726   0.0000   0.0000   0.0000   0.0000   0.0000   0.0000   0.0000   0.0000   0.0000 </r>
        <r> -12.7687   0.0000   0.0000   0.0000   0.0000   0.0000   0.0000   0.0000   0.0000   0.0000 </r>
        <r> -12.6649   0.0000   0.0000   0.0000   0.0000   0.0000   0.0000   0.0000   0.0000   0.0000 </r>
        <r> -12.5611   0.0000   0.0000   0.0000   0.0000   0.0000   0.0000   0.0000   0.0000   0.0000 </r>
        <r> -12.4573   0.0000   0.0000   0.0000   0.0000   0.0000   0.0000   0.0000   0.0000   0.0000 </r>
        <r> -12.3534   0.0000   0.0000   0.0000   0.0000   0.0000   0.0000   0.0000   0.0000   0.0000 </r>
        <r> -12.2496   0.0000   0.0000   0.0000   0.0000   0.0000   0.0000   0.0000   0.0000   0.0000 </r>
        <r> -12.1458   0.0000   0.0000   0.0000   0.0000   0.0000   0.0000   0.0000   0.0000   0.0000 </r>
        <r> -12.0420   0.0009   0.0001   0.0001   0.0001   0.0000   0.0000   0.0000   0.0000   0.0000 </r>
        <r> -11.9381   0.0194   0.0022   0.0022   0.0022   0.0000   0.0000   0.0000   0.0000   0.0000 </r>
        <r> -11.8343   0.0614   0.0069   0.0069   0.0069   0.0000   0.0000   0.0000   0.0000   0.0000 </r>
        <r> -11.7305   0.0319   0.0036   0.0036   0.0036   0.0000   0.0000   0.0000   0.0000   0.0000 </r>
        <r> -11.6266   0.0026   0.0003   0.0003   0.0003   0.0000   0.0000   0.0000   0.0000   0.0000 </r>
        <r> -11.5228   0.0000   0.0000   0.0000   0.0000   0.0000   0.0000   0.0000   0.0000   0.0000 </r>
        <r> -11.4190   0.0000   0.0000   0.0000   0.0000   0.0000   0.0000   0.0000   0.0000   0.0000 </r>
        <r> -11.3152   0.0000   0.0000   0.0000   0.0000   0.0000   0.0000   0.0000   0.0000   0.0000 </r>
        <r> -11.2113   0.0005   0.0006   0.0006   0.0006   0.0000   0.0000   0.0000   0.0000   0.0000 </r>
        <r> -11.1075   0.0088   0.0094   0.0094   0.0094   0.0000   0.0000   0.0000   0.0000   0.0000 </r>
        <r> -11.0037   0.0222   0.0237   0.0237   0.0237   0.0000   0.0000   0.0000   0.0000   0.0000 </r>
        <r> -10.8998   0.0092   0.0098   0.0098   0.0098   0.0000   0.0000   0.0000   0.0000   0.0000 </r>
        <r> -10.7960   0.0006   0.0006   0.0006   0.0006   0.0000   0.0000   0.0000   0.0000   0.0000 </r>
        <r> -10.6922   0.0000   0.0000   0.0000   0.0000   0.0000   0.0000   0.0000   0.0000   0.0000 </r>
        <r> -10.5884   0.0000   0.0000   0.0000   0.0000   0.0000   0.0000   0.0000   0.0000   0.0000 </r>
        <r> -10.4845   0.0000   0.0000   0.0000   0.0000   0.0000   0.0000   0.0000   0.0000   0.0000 </r>
        <r> -10.3807   0.0000   0.0000   0.0000   0.0000   0.0000   0.0000   0.0000   0.0000   0.0000 </r>
        <r> -10.2769   0.0000   0.0000   0.0000   0.0000   0.0000   0.0000   0.0000   0.0000   0.0000 </r>
        <r> -10.1730   0.0000   0.0000   0.0000   0.0000   0.0000   0.0000   0.0000   0.0000   0.0000 </r>
        <r> -10.0692   0.0000   0.0000   0.0000   0.0000   0.0000   0.0000   0.0000   0.0000   0.0000 </r>
        <r>  -9.9654   0.0000   0.0000   0.0000   0.0000   0.0000   0.0000   0.0000   0.0000   0.0000 </r>
        <r>  -9.8616   0.0000   0.0000   0.0000   0.0000   0.0000   0.0000   0.0000   0.0000   0.0000 </r>
        <r>  -9.7577   0.0000   0.0000   0.0000   0.0000   0.0000   0.0000   0.0000   0.0000   0.0000 </r>
        <r>  -9.6539   0.0000   0.0000   0.0000   0.0000   0.0000   0.0000   0.0000   0.0000   0.0000 </r>
        <r>  -9.5501   0.0000   0.0000   0.0000   0.0000   0.0000   0.0000   0.0000   0.0000   0.0000 </r>
        <r>  -9.4463   0.0000   0.0000   0.0000   0.0000   0.0000   0.0000   0.0000   0.0000   0.0000 </r>
        <r>  -9.3424   0.0000   0.0000   0.0000   0.0000   0.0000   0.0000   0.0000   0.0000   0.0000 </r>
        <r>  -9.2386   0.0000   0.0000   0.0000   0.0000   0.0000   0.0000   0.0000   0.0000   0.0000 </r>
        <r>  -9.1348   0.0000   0.0000   0.0000   0.0000   0.0000   0.0000   0.0000   0.0000   0.0000 </r>
        <r>  -9.0309   0.0000   0.0000   0.0000   0.0000   0.0000   0.0000   0.0000   0.0000   0.0000 </r>
        <r>  -8.9271   0.0000   0.0000   0.0000   0.0000   0.0000   0.0000   0.0000   0.0000   0.0000 </r>
        <r>  -8.8233   0.0000   0.0000   0.0000   0.0000   0.0000   0.0000   0.0000   0.0000   0.0000 </r>
        <r>  -8.7195   0.0000   0.0000   0.0000   0.0000   0.0000   0.0000   0.0000   0.0000   0.0000 </r>
        <r>  -8.6156   0.0000   0.0000   0.0000   0.0000   0.0000   0.0000   0.0000   0.0000   0.0000 </r>
        <r>  -8.5118   0.0000   0.0000   0.0000   0.0000   0.0000   0.0000   0.0000   0.0000   0.0000 </r>
        <r>  -8.4080   0.0000   0.0000   0.0000   0.0000   0.0000   0.0000   0.0000   0.0000   0.0000 </r>
        <r>  -8.3041   0.0000   0.0000   0.0000   0.0000   0.0000   0.0000   0.0000   0.0000   0.0000 </r>
        <r>  -8.2003   0.0000   0.0000   0.0000   0.0000   0.0000   0.0000   0.0000   0.0000   0.0000 </r>
        <r>  -8.0965   0.0000   0.0000   0.0000   0.0000   0.0000   0.0000   0.0000   0.0000   0.0000 </r>
        <r>  -7.9927   0.0000   0.0000   0.0000   0.0000   0.0000   0.0000   0.0000   0.0000   0.0000 </r>
        <r>  -7.8888   0.0000   0.0000   0.0000   0.0000   0.0000   0.0000   0.0000   0.0000   0.0000 </r>
        <r>  -7.7850   0.0000   0.0000   0.0000   0.0000   0.0000   0.0000   0.0000   0.0000   0.0000 </r>
        <r>  -7.6812   0.0000   0.0000   0.0000   0.0000   0.0000   0.0000   0.0000   0.0000   0.0000 </r>
        <r>  -7.5773   0.0000   0.0000   0.0000   0.0000   0.0000   0.0000   0.0000   0.0000   0.0000 </r>
        <r>  -7.4735   0.0000   0.0000   0.0000   0.0000   0.0000   0.0000   0.0000   0.0000   0.0000 </r>
        <r>  -7.3697   0.0000   0.0000   0.0000   0.0000   0.0000   0.0000   0.0000   0.0000   0.0000 </r>
        <r>  -7.2659   0.0000   0.0000   0.0000   0.0000   0.0000   0.0000   0.0000   0.0000   0.0000 </r>
        <r>  -7.1620   0.0000   0.0000   0.0000   0.0000   0.0000   0.0000   0.0000   0.0000   0.0000 </r>
        <r>  -7.0582   0.0000   0.0000   0.0000   0.0000   0.0000   0.0000   0.0000   0.0000   0.0000 </r>
        <r>  -6.9544   0.0000   0.0000   0.0000   0.0000   0.0000   0.0000   0.0000   0.0000   0.0000 </r>
        <r>  -6.8506   0.0000   0.0000   0.0000   0.0000   0.0000   0.0000   0.0000   0.0000   0.0000 </r>
        <r>  -6.7467   0.0000   0.0000   0.0000   0.0000   0.0000   0.0000   0.0000   0.0000   0.0000 </r>
        <r>  -6.6429   0.0000   0.0000   0.0000   0.0000   0.0000   0.0000   0.0000   0.0000   0.0000 </r>
        <r>  -6.5391   0.0000   0.0000   0.0000   0.0000   0.0000   0.0000   0.0000   0.0000   0.0000 </r>
        <r>  -6.4352   0.0000   0.0000   0.0000   0.0000   0.0000   0.0000   0.0000   0.0000   0.0000 </r>
        <r>  -6.3314   0.0000   0.0000   0.0000   0.0000   0.0000   0.0000   0.0000   0.0000   0.0000 </r>
        <r>  -6.2276   0.0000   0.0000   0.0000   0.0000   0.0000   0.0000   0.0000   0.0000   0.0000 </r>
        <r>  -6.1238   0.0000   0.0000   0.0000   0.0000   0.0000   0.0000   0.0000   0.0000   0.0000 </r>
        <r>  -6.0199   0.0000   0.0000   0.0000   0.0000   0.0000   0.0000   0.0000   0.0000   0.0000 </r>
        <r>  -5.9161   0.0000   0.0000   0.0000   0.0000   0.0000   0.0000   0.0000   0.0000   0.0000 </r>
        <r>  -5.8123   0.0000   0.0000   0.0000   0.0000   0.0000   0.0000   0.0000   0.0000   0.0000 </r>
        <r>  -5.7084   0.0000   0.0000   0.0000   0.0000   0.0000   0.0000   0.0000   0.0000   0.0000 </r>
        <r>  -5.6046   0.0000   0.0000   0.0000   0.0000   0.0000   0.0000   0.0000   0.0000   0.0000 </r>
        <r>  -5.5008   0.0000   0.0000   0.0000   0.0000   0.0000   0.0000   0.0000   0.0000   0.0000 </r>
        <r>  -5.3970   0.0000   0.0000   0.0000   0.0000   0.0000   0.0000   0.0000   0.0000   0.0000 </r>
        <r>  -5.2931   0.0000   0.0000   0.0000   0.0000   0.0000   0.0000   0.0000   0.0000   0.0000 </r>
        <r>  -5.1893   0.0000   0.0000   0.0000   0.0000   0.0000   0.0000   0.0000   0.0000   0.0000 </r>
        <r>  -5.0855   0.0000   0.0000   0.0000   0.0000   0.0000   0.0000   0.0000   0.0000   0.0000 </r>
        <r>  -4.9816   0.0000   0.0000   0.0000   0.0000   0.0000   0.0000   0.0000   0.0000   0.0000 </r>
        <r>  -4.8778   0.0000   0.0000   0.0000   0.0000   0.0000   0.0000   0.0000   0.0000   0.0000 </r>
        <r>  -4.7740   0.0000   0.0000   0.0000   0.0000   0.0000   0.0000   0.0000   0.0000   0.0000 </r>
        <r>  -4.6702   0.0000   0.0000   0.0000   0.0000   0.0000   0.0000   0.0000   0.0000   0.0000 </r>
        <r>  -4.5663   0.0000   0.0000   0.0000   0.0000   0.0000   0.0000   0.0000   0.0000   0.0000 </r>
        <r>  -4.4625   0.0000   0.0000   0.0000   0.0000   0.0000   0.0000   0.0000   0.0000   0.0000 </r>
        <r>  -4.3587   0.0000   0.0000   0.0000   0.0000   0.0000   0.0000   0.0000   0.0000   0.0000 </r>
        <r>  -4.2549   0.0000   0.0000   0.0000   0.0000   0.0000   0.0000   0.0000   0.0000   0.0000 </r>
        <r>  -4.1510   0.0000   0.0000   0.0000   0.0000   0.0000   0.0000   0.0000   0.0000   0.0000 </r>
        <r>  -4.0472   0.0000   0.0000   0.0000   0.0000   0.0000   0.0000   0.0000   0.0000   0.0000 </r>
        <r>  -3.9434   0.0000   0.0000   0.0000   0.0000   0.0000   0.0000   0.0000   0.0000   0.0000 </r>
        <r>  -3.8395   0.0000   0.0000   0.0000   0.0000   0.0000   0.0000   0.0000   0.0000   0.0000 </r>
        <r>  -3.7357   0.0000   0.0000   0.0000   0.0000   0.0000   0.0000   0.0000   0.0000   0.0000 </r>
        <r>  -3.6319   0.0000   0.0000   0.0000   0.0000   0.0000   0.0000   0.0000   0.0000   0.0000 </r>
        <r>  -3.5281   0.0000   0.0000   0.0000   0.0000   0.0000   0.0000   0.0000   0.0000   0.0000 </r>
        <r>  -3.4242   0.0000   0.0000   0.0000   0.0000   0.0000   0.0000   0.0000   0.0000   0.0000 </r>
        <r>  -3.3204   0.0000   0.0000   0.0000   0.0000   0.0000   0.0000   0.0000   0.0000   0.0000 </r>
        <r>  -3.2166   0.0000   0.0000   0.0000   0.0000   0.0000   0.0000   0.0000   0.0000   0.0000 </r>
        <r>  -3.1127   0.0000   0.0000   0.0000   0.0000   0.0000   0.0000   0.0000   0.0000   0.0000 </r>
        <r>  -3.0089   0.0000   0.0000   0.0000   0.0000   0.0000   0.0000   0.0000   0.0000   0.0000 </r>
        <r>  -2.9051   0.0000   0.0000   0.0000   0.0000   0.0000   0.0000   0.0000   0.0000   0.0000 </r>
        <r>  -2.8013   0.0000   0.0000   0.0000   0.0000   0.0000   0.0000   0.0000   0.0000   0.0000 </r>
        <r>  -2.6974   0.0000   0.0000   0.0000   0.0000   0.0000   0.0000   0.0000   0.0000   0.0000 </r>
        <r>  -2.5936   0.0000   0.0000   0.0000   0.0000   0.0000   0.0000   0.0000   0.0000   0.0000 </r>
        <r>  -2.4898   0.0000   0.0000   0.0000   0.0000   0.0000   0.0000   0.0000   0.0000   0.0000 </r>
        <r>  -2.3859   0.0000   0.0000   0.0000   0.0000   0.0000   0.0000   0.0000   0.0000   0.0000 </r>
        <r>  -2.2821   0.0000   0.0000   0.0000   0.0000   0.0000   0.0000   0.0000   0.0000   0.0000 </r>
        <r>  -2.1783   0.0000   0.0000   0.0000   0.0000   0.0000   0.0000   0.0000   0.0000   0.0000 </r>
        <r>  -2.0745   0.0000   0.0000   0.0000   0.0000   0.0000   0.0000   0.0000   0.0000   0.0000 </r>
        <r>  -1.9706   0.0000   0.0000   0.0000   0.0000   0.0000   0.0000   0.0000   0.0000   0.0000 </r>
        <r>  -1.8668   0.0000   0.0000   0.0000   0.0000   0.0000   0.0000   0.0000   0.0000   0.0000 </r>
        <r>  -1.7630   0.0000   0.0000   0.0000   0.0000   0.0000   0.0000   0.0000   0.0000   0.0000 </r>
        <r>  -1.6592   0.0000   0.0000   0.0000   0.0000   0.0000   0.0000   0.0000   0.0000   0.0000 </r>
        <r>  -1.5553   0.0000   0.0000   0.0000   0.0000   0.0000   0.0000   0.0000   0.0000   0.0000 </r>
        <r>  -1.4515   0.0000   0.0000   0.0000   0.0000   0.0000   0.0000   0.0000   0.0000   0.0000 </r>
        <r>  -1.3477   0.0000   0.0000   0.0000   0.0000   0.0000   0.0000   0.0000   0.0000   0.0000 </r>
        <r>  -1.2438   0.0000   0.0000   0.0000   0.0000   0.0000   0.0000   0.0000   0.0000   0.0000 </r>
        <r>  -1.1400   0.0000   0.0000   0.0000   0.0000   0.0000   0.0000   0.0000   0.0000   0.0000 </r>
        <r>  -1.0362   0.0000   0.0000   0.0000   0.0000   0.0000   0.0000   0.0000   0.0000   0.0000 </r>
        <r>  -0.9324   0.0000   0.0000   0.0000   0.0000   0.0000   0.0000   0.0000   0.0000   0.0000 </r>
        <r>  -0.8285   0.0000   0.0000   0.0000   0.0000   0.0000   0.0000   0.0000   0.0000   0.0000 </r>
        <r>  -0.7247   0.0000   0.0000   0.0000   0.0000   0.0000   0.0000   0.0000   0.0000   0.0000 </r>
        <r>  -0.6209   0.0000   0.0000   0.0000   0.0000   0.0000   0.0000   0.0000   0.0000   0.0000 </r>
        <r>  -0.5170   0.0000   0.0000   0.0000   0.0000   0.0000   0.0000   0.0000   0.0000   0.0000 </r>
        <r>  -0.4132   0.0000   0.0000   0.0000   0.0000   0.0000   0.0000   0.0000   0.0000   0.0000 </r>
        <r>  -0.3094   0.0000   0.0000   0.0000   0.0000   0.0000   0.0000   0.0000   0.0000   0.0000 </r>
        <r>  -0.2056   0.0000   0.0000   0.0000   0.0000   0.0000   0.0000   0.0000   0.0000   0.0000 </r>
        <r>  -0.1017   0.0000   0.0000   0.0000   0.0000   0.0000   0.0000   0.0000   0.0000   0.0000 </r>
        <r>   0.0021   0.0000   0.0000   0.0000   0.0000   0.0000   0.0000   0.0000   0.0000   0.0000 </r>
        <r>   0.1059   0.0000   0.0000   0.0000   0.0000   0.0000   0.0000   0.0000   0.0000   0.0000 </r>
        <r>   0.2097   0.0000   0.0000   0.0000   0.0000   0.0000   0.0000   0.0000   0.0000   0.0000 </r>
        <r>   0.3136   0.0000   0.0000   0.0000   0.0000   0.0000   0.0000   0.0000   0.0000   0.0000 </r>
        <r>   0.4174   0.0000   0.0000   0.0000   0.0000   0.0000   0.0000   0.0000   0.0000   0.0000 </r>
        <r>   0.5212   0.0000   0.0000   0.0000   0.0000   0.0000   0.0000   0.0000   0.0000   0.0000 </r>
        <r>   0.6251   0.0000   0.0000   0.0000   0.0000   0.0000   0.0000   0.0000   0.0000   0.0000 </r>
        <r>   0.7289   0.0002   0.0000   0.0000   0.0000   0.0000   0.0000   0.0000   0.0000   0.0000 </r>
        <r>   0.8327   0.0178   0.0037   0.0037   0.0037   0.0000   0.0000   0.0000   0.0000   0.0000 </r>
        <r>   0.9365   0.2140   0.0441   0.0441   0.0441   0.0000   0.0000   0.0000   0.0000   0.0000 </r>
        <r>   1.0404   0.4055   0.0835   0.0835   0.0835   0.0000   0.0000   0.0000   0.0000   0.0000 </r>
        <r>   1.1442   0.1259   0.0259   0.0259   0.0259   0.0000   0.0000   0.0000   0.0000   0.0000 </r>
        <r>   1.2480   0.0060   0.0012   0.0012   0.0012   0.0000   0.0000   0.0000   0.0000   0.0000 </r>
        <r>   1.3519   0.0000   0.0000   0.0000   0.0000   0.0000   0.0000   0.0000   0.0000   0.0000 </r>
        <r>   1.4557   0.0000   0.0000   0.0000   0.0000   0.0000   0.0000   0.0000   0.0000   0.0000 </r>
        <r>   1.5595   0.0000   0.0000   0.0000   0.0000   0.0000   0.0000   0.0000   0.0000   0.0000 </r>
        <r>   1.6633   0.0000   0.0000   0.0000   0.0000   0.0000   0.0000   0.0000   0.0000   0.0000 </r>
        <r>   1.7672   0.0000   0.0000   0.0000   0.0000   0.0000   0.0000   0.0000   0.0000   0.0000 </r>
        <r>   1.8710   0.0001   0.0000   0.0000   0.0000   0.0000   0.0000   0.0000   0.0000   0.0000 </r>
        <r>   1.9748   0.0085   0.0002   0.0002   0.0002   0.0000   0.0000   0.0000   0.0000   0.0000 </r>
        <r>   2.0787   0.0989   0.0022   0.0022   0.0022   0.0000   0.0000   0.0000   0.0000   0.0000 </r>
        <r>   2.1825   0.1822   0.0040   0.0040   0.0040   0.0000   0.0000   0.0000   0.0000   0.0000 </r>
        <r>   2.2863   0.0550   0.0012   0.0012   0.0012   0.0000   0.0000   0.0000   0.0000   0.0000 </r>
        <r>   2.3901   0.0025   0.0001   0.0001   0.0001   0.0000   0.0000   0.0000   0.0000   0.0000 </r>
        <r>   2.4940   0.0000   0.0000   0.0000   0.0000   0.0000   0.0000   0.0000   0.0000   0.0000 </r>
        <r>   2.5978   0.0000   0.0000   0.0000   0.0000   0.0000   0.0000   0.0000   0.0000   0.0000 </r>
        <r>   2.7016   0.0016   0.0021   0.0021   0.0021   0.0000   0.0000   0.0000   0.0000   0.0000 </r>
        <r>   2.8054   0.0261   0.0358   0.0358   0.0358   0.0000   0.0000   0.0000   0.0000   0.0000 </r>
        <r>   2.9093   0.0676   0.0928   0.0928   0.0928   0.0000   0.0000   0.0000   0.0000   0.0000 </r>
        <r>   3.0131   0.0288   0.0395   0.0395   0.0395   0.0000   0.0000   0.0000   0.0000   0.0000 </r>
        <r>   3.1169   0.0019   0.0026   0.0026   0.0026   0.0000   0.0000   0.0000   0.0000   0.0000 </r>
        <r>   3.2208   0.0000   0.0000   0.0000   0.0000   0.0000   0.0000   0.0000   0.0000   0.0000 </r>
        <r>   3.3246   0.0000   0.0000   0.0000   0.0000   0.0000   0.0000   0.0000   0.0000   0.0000 </r>
        <r>   3.4284   0.0000   0.0000   0.0000   0.0000   0.0000   0.0000   0.0000   0.0000   0.0000 </r>
        <r>   3.5322   0.0000   0.0001   0.0001   0.0001   0.0000   0.0000   0.0000   0.0000   0.0000 </r>
        <r>   3.6361   0.0000   0.0056   0.0056   0.0056   0.0000   0.0000   0.0000   0.0000   0.0000 </r>
        <r>   3.7399   0.0000   0.0438   0.0438   0.0438   0.0000   0.0000   0.0000   0.0000   0.0000 </r>
        <r>   3.8437   0.0000   0.0551   0.0551   0.0551   0.0000   0.0000   0.0000   0.0000   0.0000 </r>
        <r>   3.9476   0.0000   0.0113   0.0113   0.0113   0.0000   0.0000   0.0000   0.0000   0.0000 </r>
        <r>   4.0514   0.0000   0.0003   0.0003   0.0003   0.0000   0.0000   0.0000   0.0000   0.0000 </r>
        <r>   4.1552   0.0000   0.0000   0.0000   0.0000   0.0000   0.0000   0.0000   0.0000   0.0000 </r>
        <r>   4.2590   0.0000   0.0002   0.0002   0.0002   0.0000   0.0000   0.0000   0.0000   0.0000 </r>
        <r>   4.3629   0.0000   0.0047   0.0047   0.0047   0.0000   0.0000   0.0000   0.0000   0.0000 </r>
        <r>   4.4667   0.0000   0.0135   0.0135   0.0135   0.0000   0.0000   0.0000   0.0000   0.0000 </r>
        <r>   4.5705   0.0000   0.0064   0.0064   0.0064   0.0000   0.0000   0.0000   0.0000   0.0000 </r>
        <r>   4.6744   0.0000   0.0005   0.0005   0.0005   0.0000   0.0000   0.0000   0.0000   0.0000 </r>
        <r>   4.7782   0.0000   0.0000   0.0000   0.0000   0.0000   0.0000   0.0000   0.0000   0.0000 </r>
        <r>   4.8820   0.0000   0.0000   0.0000   0.0000   0.0000   0.0000   0.0000   0.0000   0.0000 </r>
        <r>   4.9858   0.0000   0.0000   0.0000   0.0000   0.0000   0.0000   0.0000   0.0000   0.0000 </r>
        <r>   5.0897   0.0000   0.0000   0.0000   0.0000   0.0000   0.0000   0.0000   0.0000   0.0000 </r>
        <r>   5.1935   0.0000   0.0000   0.0000   0.0000   0.0000   0.0000   0.0000   0.0000   0.0000 </r>
        <r>   5.2973   0.0000   0.0000   0.0000   0.0000   0.0000   0.0000   0.0000   0.0000   0.0000 </r>
        <r>   5.4011   0.0000   0.0000   0.0000   0.0000   0.0000   0.0000   0.0000   0.0000   0.0000 </r>
        <r>   5.5050   0.0000   0.0000   0.0000   0.0000   0.0000   0.0000   0.0000   0.0000   0.0000 </r>
        <r>   5.6088   0.0000   0.0000   0.0000   0.0000   0.0000   0.0000   0.0000   0.0000   0.0000 </r>
        <r>   5.7126   0.0000   0.0000   0.0000   0.0000   0.0000   0.0000   0.0000   0.0000   0.0000 </r>
        <r>   5.8165   0.0000   0.0000   0.0000   0.0000   0.0000   0.0000   0.0000   0.0000   0.0000 </r>
        <r>   5.9203   0.0000   0.0000   0.0000   0.0000   0.0000   0.0000   0.0000   0.0000   0.0000 </r>
        <r>   6.0241   0.0000   0.0000   0.0000   0.0000   0.0000   0.0000   0.0000   0.0000   0.0000 </r>
        <r>   6.1279   0.0000   0.0000   0.0000   0.0000   0.0000   0.0000   0.0000   0.0000   0.0000 </r>
        <r>   6.2318   0.0000   0.0000   0.0000   0.0000   0.0000   0.0000   0.0000   0.0000   0.0000 </r>
        <r>   6.3356   0.0000   0.0000   0.0000   0.0000   0.0000   0.0000   0.0000   0.0000   0.0000 </r>
        <r>   6.4394   0.0000   0.0000   0.0000   0.0000   0.0000   0.0000   0.0000   0.0000   0.0000 </r>
        <r>   6.5433   0.0000   0.0000   0.0000   0.0000   0.0000   0.0000   0.0000   0.0000   0.0000 </r>
        <r>   6.6471   0.0000   0.0000   0.0000   0.0000   0.0000   0.0000   0.0000   0.0000   0.0000 </r>
        <r>   6.7509   0.0000   0.0000   0.0000   0.0000   0.0000   0.0000   0.0000   0.0000   0.0000 </r>
        <r>   6.8547   0.0000   0.0000   0.0000   0.0000   0.0000   0.0000   0.0000   0.0000   0.0000 </r>
        <r>   6.9586   0.0000   0.0000   0.0000   0.0000   0.0000   0.0000   0.0000   0.0000   0.0000 </r>
        <r>   7.0624   0.0000   0.0000   0.0000   0.0000   0.0000   0.0000   0.0000   0.0000   0.0000 </r>
        <r>   7.1662   0.0000   0.0000   0.0000   0.0000   0.0000   0.0000   0.0000   0.0000   0.0000 </r>
        <r>   7.2701   0.0000   0.0000   0.0000   0.0000   0.0000   0.0000   0.0000   0.0000   0.0000 </r>
        <r>   7.3739   0.0000   0.0000   0.0000   0.0000   0.0000   0.0000   0.0000   0.0000   0.0000 </r>
        <r>   7.4777   0.0000   0.0000   0.0000   0.0000   0.0000   0.0000   0.0000   0.0000   0.0000 </r>
        <r>   7.5815   0.0000   0.0000   0.0000   0.0000   0.0000   0.0000   0.0000   0.0000   0.0000 </r>
        <r>   7.6854   0.0000   0.0000   0.0000   0.0000   0.0000   0.0000   0.0000   0.0000   0.0000 </r>
        <r>   7.7892   0.0000   0.0000   0.0000   0.0000   0.0000   0.0000   0.0000   0.0000   0.0000 </r>
        <r>   7.8930   0.0000   0.0000   0.0000   0.0000   0.0000   0.0000   0.0000   0.0000   0.0000 </r>
        <r>   7.9968   0.0000   0.0000   0.0000   0.0000   0.0000   0.0000   0.0000   0.0000   0.0000 </r>
        <r>   8.1007   0.0000   0.0000   0.0000   0.0000   0.0000   0.0000   0.0000   0.0000   0.0000 </r>
        <r>   8.2045   0.0000   0.0000   0.0000   0.0000   0.0000   0.0000   0.0000   0.0000   0.0000 </r>
        <r>   8.3083   0.0000   0.0000   0.0000   0.0000   0.0000   0.0000   0.0000   0.0000   0.0000 </r>
        <r>   8.4122   0.0000   0.0000   0.0000   0.0000   0.0000   0.0000   0.0000   0.0000   0.0000 </r>
        <r>   8.5160   0.0000   0.0000   0.0000   0.0000   0.0000   0.0000   0.0000   0.0000   0.0000 </r>
        <r>   8.6198   0.0000   0.0000   0.0000   0.0000   0.0000   0.0000   0.0000   0.0000   0.0000 </r>
        <r>   8.7236   0.0000   0.0000   0.0000   0.0000   0.0000   0.0000   0.0000   0.0000   0.0000 </r>
        <r>   8.8275   0.0000   0.0000   0.0000   0.0000   0.0000   0.0000   0.0000   0.0000   0.0000 </r>
        <r>   8.9313   0.0000   0.0000   0.0000   0.0000   0.0000   0.0000   0.0000   0.0000   0.0000 </r>
        <r>   9.0351   0.0000   0.0000   0.0000   0.0000   0.0000   0.0000   0.0000   0.0000   0.0000 </r>
        <r>   9.1390   0.0000   0.0000   0.0000   0.0000   0.0000   0.0000   0.0000   0.0000   0.0000 </r>
        <r>   9.2428   0.0000   0.0000   0.0000   0.0000   0.0000   0.0000   0.0000   0.0000   0.0000 </r>
        <r>   9.3466   0.0000   0.0000   0.0000   0.0000   0.0000   0.0000   0.0000   0.0000   0.0000 </r>
        <r>   9.4504   0.0000   0.0000   0.0000   0.0000   0.0000   0.0000   0.0000   0.0000   0.0000 </r>
        <r>   9.5543   0.0000   0.0000   0.0000   0.0000   0.0000   0.0000   0.0000   0.0000   0.0000 </r>
        <r>   9.6581   0.0000   0.0000   0.0000   0.0000   0.0000   0.0000   0.0000   0.0000   0.0000 </r>
        <r>   9.7619   0.0000   0.0000   0.0000   0.0000   0.0000   0.0000   0.0000   0.0000   0.0000 </r>
        <r>   9.8658   0.0000   0.0000   0.0000   0.0000   0.0000   0.0000   0.0000   0.0000   0.0000 </r>
        <r>   9.9696   0.0000   0.0000   0.0000   0.0000   0.0000   0.0000   0.0000   0.0000   0.0000 </r>
        <r>  10.0734   0.0000   0.0000   0.0000   0.0000   0.0000   0.0000   0.0000   0.0000   0.0000 </r>
        <r>  10.1772   0.0000   0.0000   0.0000   0.0000   0.0000   0.0000   0.0000   0.0000   0.0000 </r>
        <r>  10.2811   0.0000   0.0000   0.0000   0.0000   0.0000   0.0000   0.0000   0.0000   0.0000 </r>
        <r>  10.3849   0.0000   0.0000   0.0000   0.0000   0.0000   0.0000   0.0000   0.0000   0.0000 </r>
        <r>  10.4887   0.0000   0.0000   0.0000   0.0000   0.0000   0.0000   0.0000   0.0000   0.0000 </r>
        <r>  10.5925   0.0000   0.0000   0.0000   0.0000   0.0000   0.0000   0.0000   0.0000   0.0000 </r>
        <r>  10.6964   0.0000   0.0000   0.0000   0.0000   0.0000   0.0000   0.0000   0.0000   0.0000 </r>
        <r>  10.8002   0.0000   0.0000   0.0000   0.0000   0.0000   0.0000   0.0000   0.0000   0.0000 </r>
        <r>  10.9040   0.0000   0.0000   0.0000   0.0000   0.0000   0.0000   0.0000   0.0000   0.0000 </r>
        <r>  11.0079   0.0000   0.0000   0.0000   0.0000   0.0000   0.0000   0.0000   0.0000   0.0000 </r>
        <r>  11.1117   0.0000   0.0000   0.0000   0.0000   0.0000   0.0000   0.0000   0.0000   0.0000 </r>
        <r>  11.2155   0.0000   0.0000   0.0000   0.0000   0.0000   0.0000   0.0000   0.0000   0.0000 </r>
        <r>  11.3193   0.0000   0.0000   0.0000   0.0000   0.0000   0.0000   0.0000   0.0000   0.0000 </r>
        <r>  11.4232   0.0000   0.0000   0.0000   0.0000   0.0000   0.0000   0.0000   0.0000   0.0000 </r>
        <r>  11.5270   0.0000   0.0000   0.0000   0.0000   0.0000   0.0000   0.0000   0.0000   0.0000 </r>
        <r>  11.6308   0.0000   0.0000   0.0000   0.0000   0.0000   0.0000   0.0000   0.0000   0.0000 </r>
        <r>  11.7347   0.0047   0.0009   0.0009   0.0009   0.0000   0.0000   0.0000   0.0000   0.0000 </r>
        <r>  11.8385   0.1003   0.0184   0.0184   0.0184   0.0000   0.0000   0.0000   0.0000   0.0000 </r>
        <r>  11.9423   0.3308   0.0607   0.0607   0.0607   0.0000   0.0000   0.0000   0.0000   0.0000 </r>
        <r>  12.0461   0.1787   0.0328   0.0328   0.0328   0.0000   0.0000   0.0000   0.0000   0.0000 </r>
        <r>  12.1500   0.0152   0.0028   0.0028   0.0028   0.0000   0.0000   0.0000   0.0000   0.0000 </r>
        <r>  12.2538   0.0002   0.0000   0.0000   0.0000   0.0000   0.0000   0.0000   0.0000   0.0000 </r>
        <r>  12.3576   0.0000   0.0000   0.0000   0.0000   0.0000   0.0000   0.0000   0.0000   0.0000 </r>
        <r>  12.4615   0.0000   0.0000   0.0000   0.0000   0.0000   0.0000   0.0000   0.0000   0.0000 </r>
        <r>  12.5653   0.0000   0.0000   0.0000   0.0000   0.0000   0.0000   0.0000   0.0000   0.0000 </r>
        <r>  12.6691   0.0000   0.0000   0.0000   0.0000   0.0000   0.0000   0.0000   0.0000   0.0000 </r>
        <r>  12.7729   0.0000   0.0000   0.0000   0.0000   0.0000   0.0000   0.0000   0.0000   0.0000 </r>
        <r>  12.8768   0.0000   0.0000   0.0000   0.0000   0.0000   0.0000   0.0000   0.0000   0.0000 </r>
        <r>  12.9806   0.0000   0.0000   0.0000   0.0000   0.0000   0.0000   0.0000   0.0000   0.0000 </r>
        <r>  13.0844   0.0000   0.0000   0.0000   0.0000   0.0000   0.0000   0.0000   0.0000   0.0000 </r>
        <r>  13.1882   0.0000   0.0000   0.0000   0.0000   0.0000   0.0000   0.0000   0.0000   0.0000 </r>
        <r>  13.2921   0.0000   0.0000   0.0000   0.0000   0.0000   0.0000   0.0000   0.0000   0.0000 </r>
        <r>  13.3959   0.0000   0.0000   0.0000   0.0000   0.0000   0.0000   0.0000   0.0000   0.0000 </r>
        <r>  13.4997   0.0000   0.0000   0.0000   0.0000   0.0000   0.0000   0.0000   0.0000   0.0000 </r>
        <r>  13.6036   0.0000   0.0000   0.0000   0.0000   0.0000   0.0000   0.0000   0.0000   0.0000 </r>
        <r>  13.7074   0.0000   0.0000   0.0000   0.0000   0.0000   0.0000   0.0000   0.0000   0.0000 </r>
        <r>  13.8112   0.0000   0.0000   0.0000   0.0000   0.0000   0.0000   0.0000   0.0000   0.0000 </r>
        <r>  13.9150   0.0000   0.0000   0.0000   0.0000   0.0000   0.0000   0.0000   0.0000   0.0000 </r>
        <r>  14.0189   0.0000   0.0000   0.0000   0.0000   0.0000   0.0000   0.0000   0.0000   0.0000 </r>
        <r>  14.1227   0.0000   0.0000   0.0000   0.0000   0.0000   0.0000   0.0000   0.0000   0.0000 </r>
        <r>  14.2265   0.0000   0.0000   0.0000   0.0000   0.0000   0.0000   0.0000   0.0000   0.0000 </r>
        <r>  14.3304   0.0020   0.0013   0.0013   0.0013   0.0000   0.0000   0.0000   0.0000   0.0000 </r>
        <r>  14.4342   0.0707   0.0442   0.0442   0.0442   0.0000   0.0000   0.0000   0.0000   0.0000 </r>
        <r>  14.5380   0.3694   0.2311   0.2311   0.2310   0.0000   0.0000   0.0000   0.0000   0.0000 </r>
        <r>  14.6418   0.3136   0.1963   0.1962   0.1962   0.0000   0.0000   0.0000   0.0000   0.0000 </r>
        <r>  14.7457   0.0428   0.0268   0.0268   0.0268   0.0000   0.0000   0.0000   0.0000   0.0000 </r>
        <r>  14.8495   0.0009   0.0005   0.0005   0.0005   0.0000   0.0000   0.0000   0.0000   0.0000 </r>
        <r>  14.9533   0.0000   0.0000   0.0000   0.0000   0.0000   0.0000   0.0000   0.0000   0.0000 </r>
        <r>  15.0571   0.0000   0.0000   0.0000   0.0000   0.0000   0.0000   0.0000   0.0000   0.0000 </r>
        <r>  15.1610   0.0000   0.0000   0.0000   0.0000   0.0000   0.0000   0.0000   0.0000   0.0000 </r>
        <r>  15.2648   0.0000   0.0000   0.0000   0.0000   0.0000   0.0000   0.0000   0.0000   0.0000 </r>
        <r>  15.3686   0.0000   0.0000   0.0000   0.0000   0.0000   0.0000   0.0000   0.0000   0.0000 </r>
        <r>  15.4725   0.0000   0.0000   0.0000   0.0000   0.0000   0.0000   0.0000   0.0000   0.0000 </r>
        <r>  15.5763   0.0000   0.0000   0.0000   0.0000   0.0000   0.0000   0.0000   0.0000   0.0000 </r>
        <r>  15.6801   0.0000   0.0000   0.0000   0.0000   0.0000   0.0000   0.0000   0.0000   0.0000 </r>
        <r>  15.7839   0.0000   0.0000   0.0000   0.0000   0.0000   0.0000   0.0000   0.0000   0.0000 </r>
        <r>  15.8878   0.0000   0.0000   0.0000   0.0000   0.0000   0.0000   0.0000   0.0000   0.0000 </r>
        <r>  15.9916   0.0000   0.0000   0.0000   0.0000   0.0000   0.0000   0.0000   0.0000   0.0000 </r>
        <r>  16.0954   0.0000   0.0000   0.0000   0.0000   0.0000   0.0000   0.0000   0.0000   0.0000 </r>
        <r>  16.1993   0.0004   0.0000   0.0000   0.0000   0.0000   0.0000   0.0000   0.0000   0.0000 </r>
        <r>  16.3031   0.0312   0.0003   0.0002   0.0006   0.0000   0.0000   0.0000   0.0000   0.0000 </r>
        <r>  16.4069   0.3827   0.0034   0.0019   0.0079   0.0000   0.0000   0.0000   0.0000   0.0000 </r>
        <r>  16.5107   0.7376   0.0066   0.0037   0.0152   0.0000   0.0000   0.0000   0.0000   0.0000 </r>
        <r>  16.6146   0.2331   0.0021   0.0012   0.0048   0.0000   0.0000   0.0000   0.0000   0.0000 </r>
        <r>  16.7184   0.0113   0.0001   0.0001   0.0002   0.0000   0.0000   0.0000   0.0000   0.0000 </r>
        <r>  16.8222   0.0001   0.0000   0.0000   0.0000   0.0000   0.0000   0.0000   0.0000   0.0000 </r>
        <r>  16.9261   0.0000   0.0000   0.0000   0.0000   0.0000   0.0000   0.0000   0.0000   0.0000 </r>
        <r>  17.0299   0.0000   0.0000   0.0000   0.0000   0.0000   0.0000   0.0000   0.0000   0.0000 </r>
        <r>  17.1337   0.0000   0.0000   0.0000   0.0000   0.0000   0.0000   0.0000   0.0000   0.0000 </r>
        <r>  17.2375   0.0000   0.0000   0.0000   0.0000   0.0000   0.0000   0.0000   0.0000   0.0000 </r>
        <r>  17.3414   0.0000   0.0000   0.0000   0.0000   0.0000   0.0000   0.0000   0.0000   0.0000 </r>
        <r>  17.4452   0.0000   0.0000   0.0000   0.0000   0.0000   0.0000   0.0000   0.0000   0.0000 </r>
        <r>  17.5490   0.0000   0.0000   0.0000   0.0000   0.0000   0.0000   0.0000   0.0000   0.0000 </r>
        <r>  17.6528   0.0000   0.0000   0.0000   0.0000   0.0000   0.0000   0.0000   0.0000   0.0000 </r>
        <r>  17.7567   0.0000   0.0000   0.0000   0.0000   0.0000   0.0000   0.0000   0.0000   0.0000 </r>
        <r>  17.8605   0.0000   0.0000   0.0000   0.0000   0.0000   0.0000   0.0000   0.0000   0.0000 </r>
       </set>
      </set>
      <set comment="ion 2">
       <set comment="spin 1">
        <r> -13.2879   0.0000   0.0000   0.0000   0.0000   0.0000   0.0000   0.0000   0.0000   0.0000 </r>
        <r> -13.1841   0.0000   0.0000   0.0000   0.0000   0.0000   0.0000   0.0000   0.0000   0.0000 </r>
        <r> -13.0802   0.0000   0.0000   0.0000   0.0000   0.0000   0.0000   0.0000   0.0000   0.0000 </r>
        <r> -12.9764   0.0000   0.0000   0.0000   0.0000   0.0000   0.0000   0.0000   0.0000   0.0000 </r>
        <r> -12.8726   0.0000   0.0000   0.0000   0.0000   0.0000   0.0000   0.0000   0.0000   0.0000 </r>
        <r> -12.7687   0.0000   0.0000   0.0000   0.0000   0.0000   0.0000   0.0000   0.0000   0.0000 </r>
        <r> -12.6649   0.0000   0.0000   0.0000   0.0000   0.0000   0.0000   0.0000   0.0000   0.0000 </r>
        <r> -12.5611   0.0000   0.0000   0.0000   0.0000   0.0000   0.0000   0.0000   0.0000   0.0000 </r>
        <r> -12.4573   0.0000   0.0000   0.0000   0.0000   0.0000   0.0000   0.0000   0.0000   0.0000 </r>
        <r> -12.3534   0.0000   0.0000   0.0000   0.0000   0.0000   0.0000   0.0000   0.0000   0.0000 </r>
        <r> -12.2496   0.0000   0.0000   0.0000   0.0000   0.0000   0.0000   0.0000   0.0000   0.0000 </r>
        <r> -12.1458   0.0000   0.0000   0.0000   0.0000   0.0000   0.0000   0.0000   0.0000   0.0000 </r>
        <r> -12.0420   0.0009   0.0001   0.0001   0.0001   0.0000   0.0000   0.0000   0.0000   0.0000 </r>
        <r> -11.9381   0.0194   0.0022   0.0022   0.0022   0.0000   0.0000   0.0000   0.0000   0.0000 </r>
        <r> -11.8343   0.0614   0.0069   0.0069   0.0069   0.0000   0.0000   0.0000   0.0000   0.0000 </r>
        <r> -11.7305   0.0319   0.0036   0.0036   0.0036   0.0000   0.0000   0.0000   0.0000   0.0000 </r>
        <r> -11.6266   0.0026   0.0003   0.0003   0.0003   0.0000   0.0000   0.0000   0.0000   0.0000 </r>
        <r> -11.5228   0.0000   0.0000   0.0000   0.0000   0.0000   0.0000   0.0000   0.0000   0.0000 </r>
        <r> -11.4190   0.0000   0.0000   0.0000   0.0000   0.0000   0.0000   0.0000   0.0000   0.0000 </r>
        <r> -11.3152   0.0000   0.0000   0.0000   0.0000   0.0000   0.0000   0.0000   0.0000   0.0000 </r>
        <r> -11.2113   0.0005   0.0006   0.0006   0.0006   0.0000   0.0000   0.0000   0.0000   0.0000 </r>
        <r> -11.1075   0.0088   0.0094   0.0094   0.0094   0.0000   0.0000   0.0000   0.0000   0.0000 </r>
        <r> -11.0037   0.0222   0.0237   0.0237   0.0237   0.0000   0.0000   0.0000   0.0000   0.0000 </r>
        <r> -10.8998   0.0092   0.0098   0.0098   0.0098   0.0000   0.0000   0.0000   0.0000   0.0000 </r>
        <r> -10.7960   0.0006   0.0006   0.0006   0.0006   0.0000   0.0000   0.0000   0.0000   0.0000 </r>
        <r> -10.6922   0.0000   0.0000   0.0000   0.0000   0.0000   0.0000   0.0000   0.0000   0.0000 </r>
        <r> -10.5884   0.0000   0.0000   0.0000   0.0000   0.0000   0.0000   0.0000   0.0000   0.0000 </r>
        <r> -10.4845   0.0000   0.0000   0.0000   0.0000   0.0000   0.0000   0.0000   0.0000   0.0000 </r>
        <r> -10.3807   0.0000   0.0000   0.0000   0.0000   0.0000   0.0000   0.0000   0.0000   0.0000 </r>
        <r> -10.2769   0.0000   0.0000   0.0000   0.0000   0.0000   0.0000   0.0000   0.0000   0.0000 </r>
        <r> -10.1730   0.0000   0.0000   0.0000   0.0000   0.0000   0.0000   0.0000   0.0000   0.0000 </r>
        <r> -10.0692   0.0000   0.0000   0.0000   0.0000   0.0000   0.0000   0.0000   0.0000   0.0000 </r>
        <r>  -9.9654   0.0000   0.0000   0.0000   0.0000   0.0000   0.0000   0.0000   0.0000   0.0000 </r>
        <r>  -9.8616   0.0000   0.0000   0.0000   0.0000   0.0000   0.0000   0.0000   0.0000   0.0000 </r>
        <r>  -9.7577   0.0000   0.0000   0.0000   0.0000   0.0000   0.0000   0.0000   0.0000   0.0000 </r>
        <r>  -9.6539   0.0000   0.0000   0.0000   0.0000   0.0000   0.0000   0.0000   0.0000   0.0000 </r>
        <r>  -9.5501   0.0000   0.0000   0.0000   0.0000   0.0000   0.0000   0.0000   0.0000   0.0000 </r>
        <r>  -9.4463   0.0000   0.0000   0.0000   0.0000   0.0000   0.0000   0.0000   0.0000   0.0000 </r>
        <r>  -9.3424   0.0000   0.0000   0.0000   0.0000   0.0000   0.0000   0.0000   0.0000   0.0000 </r>
        <r>  -9.2386   0.0000   0.0000   0.0000   0.0000   0.0000   0.0000   0.0000   0.0000   0.0000 </r>
        <r>  -9.1348   0.0000   0.0000   0.0000   0.0000   0.0000   0.0000   0.0000   0.0000   0.0000 </r>
        <r>  -9.0309   0.0000   0.0000   0.0000   0.0000   0.0000   0.0000   0.0000   0.0000   0.0000 </r>
        <r>  -8.9271   0.0000   0.0000   0.0000   0.0000   0.0000   0.0000   0.0000   0.0000   0.0000 </r>
        <r>  -8.8233   0.0000   0.0000   0.0000   0.0000   0.0000   0.0000   0.0000   0.0000   0.0000 </r>
        <r>  -8.7195   0.0000   0.0000   0.0000   0.0000   0.0000   0.0000   0.0000   0.0000   0.0000 </r>
        <r>  -8.6156   0.0000   0.0000   0.0000   0.0000   0.0000   0.0000   0.0000   0.0000   0.0000 </r>
        <r>  -8.5118   0.0000   0.0000   0.0000   0.0000   0.0000   0.0000   0.0000   0.0000   0.0000 </r>
        <r>  -8.4080   0.0000   0.0000   0.0000   0.0000   0.0000   0.0000   0.0000   0.0000   0.0000 </r>
        <r>  -8.3041   0.0000   0.0000   0.0000   0.0000   0.0000   0.0000   0.0000   0.0000   0.0000 </r>
        <r>  -8.2003   0.0000   0.0000   0.0000   0.0000   0.0000   0.0000   0.0000   0.0000   0.0000 </r>
        <r>  -8.0965   0.0000   0.0000   0.0000   0.0000   0.0000   0.0000   0.0000   0.0000   0.0000 </r>
        <r>  -7.9927   0.0000   0.0000   0.0000   0.0000   0.0000   0.0000   0.0000   0.0000   0.0000 </r>
        <r>  -7.8888   0.0000   0.0000   0.0000   0.0000   0.0000   0.0000   0.0000   0.0000   0.0000 </r>
        <r>  -7.7850   0.0000   0.0000   0.0000   0.0000   0.0000   0.0000   0.0000   0.0000   0.0000 </r>
        <r>  -7.6812   0.0000   0.0000   0.0000   0.0000   0.0000   0.0000   0.0000   0.0000   0.0000 </r>
        <r>  -7.5773   0.0000   0.0000   0.0000   0.0000   0.0000   0.0000   0.0000   0.0000   0.0000 </r>
        <r>  -7.4735   0.0000   0.0000   0.0000   0.0000   0.0000   0.0000   0.0000   0.0000   0.0000 </r>
        <r>  -7.3697   0.0000   0.0000   0.0000   0.0000   0.0000   0.0000   0.0000   0.0000   0.0000 </r>
        <r>  -7.2659   0.0000   0.0000   0.0000   0.0000   0.0000   0.0000   0.0000   0.0000   0.0000 </r>
        <r>  -7.1620   0.0000   0.0000   0.0000   0.0000   0.0000   0.0000   0.0000   0.0000   0.0000 </r>
        <r>  -7.0582   0.0000   0.0000   0.0000   0.0000   0.0000   0.0000   0.0000   0.0000   0.0000 </r>
        <r>  -6.9544   0.0000   0.0000   0.0000   0.0000   0.0000   0.0000   0.0000   0.0000   0.0000 </r>
        <r>  -6.8506   0.0000   0.0000   0.0000   0.0000   0.0000   0.0000   0.0000   0.0000   0.0000 </r>
        <r>  -6.7467   0.0000   0.0000   0.0000   0.0000   0.0000   0.0000   0.0000   0.0000   0.0000 </r>
        <r>  -6.6429   0.0000   0.0000   0.0000   0.0000   0.0000   0.0000   0.0000   0.0000   0.0000 </r>
        <r>  -6.5391   0.0000   0.0000   0.0000   0.0000   0.0000   0.0000   0.0000   0.0000   0.0000 </r>
        <r>  -6.4352   0.0000   0.0000   0.0000   0.0000   0.0000   0.0000   0.0000   0.0000   0.0000 </r>
        <r>  -6.3314   0.0000   0.0000   0.0000   0.0000   0.0000   0.0000   0.0000   0.0000   0.0000 </r>
        <r>  -6.2276   0.0000   0.0000   0.0000   0.0000   0.0000   0.0000   0.0000   0.0000   0.0000 </r>
        <r>  -6.1238   0.0000   0.0000   0.0000   0.0000   0.0000   0.0000   0.0000   0.0000   0.0000 </r>
        <r>  -6.0199   0.0000   0.0000   0.0000   0.0000   0.0000   0.0000   0.0000   0.0000   0.0000 </r>
        <r>  -5.9161   0.0000   0.0000   0.0000   0.0000   0.0000   0.0000   0.0000   0.0000   0.0000 </r>
        <r>  -5.8123   0.0000   0.0000   0.0000   0.0000   0.0000   0.0000   0.0000   0.0000   0.0000 </r>
        <r>  -5.7084   0.0000   0.0000   0.0000   0.0000   0.0000   0.0000   0.0000   0.0000   0.0000 </r>
        <r>  -5.6046   0.0000   0.0000   0.0000   0.0000   0.0000   0.0000   0.0000   0.0000   0.0000 </r>
        <r>  -5.5008   0.0000   0.0000   0.0000   0.0000   0.0000   0.0000   0.0000   0.0000   0.0000 </r>
        <r>  -5.3970   0.0000   0.0000   0.0000   0.0000   0.0000   0.0000   0.0000   0.0000   0.0000 </r>
        <r>  -5.2931   0.0000   0.0000   0.0000   0.0000   0.0000   0.0000   0.0000   0.0000   0.0000 </r>
        <r>  -5.1893   0.0000   0.0000   0.0000   0.0000   0.0000   0.0000   0.0000   0.0000   0.0000 </r>
        <r>  -5.0855   0.0000   0.0000   0.0000   0.0000   0.0000   0.0000   0.0000   0.0000   0.0000 </r>
        <r>  -4.9816   0.0000   0.0000   0.0000   0.0000   0.0000   0.0000   0.0000   0.0000   0.0000 </r>
        <r>  -4.8778   0.0000   0.0000   0.0000   0.0000   0.0000   0.0000   0.0000   0.0000   0.0000 </r>
        <r>  -4.7740   0.0000   0.0000   0.0000   0.0000   0.0000   0.0000   0.0000   0.0000   0.0000 </r>
        <r>  -4.6702   0.0000   0.0000   0.0000   0.0000   0.0000   0.0000   0.0000   0.0000   0.0000 </r>
        <r>  -4.5663   0.0000   0.0000   0.0000   0.0000   0.0000   0.0000   0.0000   0.0000   0.0000 </r>
        <r>  -4.4625   0.0000   0.0000   0.0000   0.0000   0.0000   0.0000   0.0000   0.0000   0.0000 </r>
        <r>  -4.3587   0.0000   0.0000   0.0000   0.0000   0.0000   0.0000   0.0000   0.0000   0.0000 </r>
        <r>  -4.2549   0.0000   0.0000   0.0000   0.0000   0.0000   0.0000   0.0000   0.0000   0.0000 </r>
        <r>  -4.1510   0.0000   0.0000   0.0000   0.0000   0.0000   0.0000   0.0000   0.0000   0.0000 </r>
        <r>  -4.0472   0.0000   0.0000   0.0000   0.0000   0.0000   0.0000   0.0000   0.0000   0.0000 </r>
        <r>  -3.9434   0.0000   0.0000   0.0000   0.0000   0.0000   0.0000   0.0000   0.0000   0.0000 </r>
        <r>  -3.8395   0.0000   0.0000   0.0000   0.0000   0.0000   0.0000   0.0000   0.0000   0.0000 </r>
        <r>  -3.7357   0.0000   0.0000   0.0000   0.0000   0.0000   0.0000   0.0000   0.0000   0.0000 </r>
        <r>  -3.6319   0.0000   0.0000   0.0000   0.0000   0.0000   0.0000   0.0000   0.0000   0.0000 </r>
        <r>  -3.5281   0.0000   0.0000   0.0000   0.0000   0.0000   0.0000   0.0000   0.0000   0.0000 </r>
        <r>  -3.4242   0.0000   0.0000   0.0000   0.0000   0.0000   0.0000   0.0000   0.0000   0.0000 </r>
        <r>  -3.3204   0.0000   0.0000   0.0000   0.0000   0.0000   0.0000   0.0000   0.0000   0.0000 </r>
        <r>  -3.2166   0.0000   0.0000   0.0000   0.0000   0.0000   0.0000   0.0000   0.0000   0.0000 </r>
        <r>  -3.1127   0.0000   0.0000   0.0000   0.0000   0.0000   0.0000   0.0000   0.0000   0.0000 </r>
        <r>  -3.0089   0.0000   0.0000   0.0000   0.0000   0.0000   0.0000   0.0000   0.0000   0.0000 </r>
        <r>  -2.9051   0.0000   0.0000   0.0000   0.0000   0.0000   0.0000   0.0000   0.0000   0.0000 </r>
        <r>  -2.8013   0.0000   0.0000   0.0000   0.0000   0.0000   0.0000   0.0000   0.0000   0.0000 </r>
        <r>  -2.6974   0.0000   0.0000   0.0000   0.0000   0.0000   0.0000   0.0000   0.0000   0.0000 </r>
        <r>  -2.5936   0.0000   0.0000   0.0000   0.0000   0.0000   0.0000   0.0000   0.0000   0.0000 </r>
        <r>  -2.4898   0.0000   0.0000   0.0000   0.0000   0.0000   0.0000   0.0000   0.0000   0.0000 </r>
        <r>  -2.3859   0.0000   0.0000   0.0000   0.0000   0.0000   0.0000   0.0000   0.0000   0.0000 </r>
        <r>  -2.2821   0.0000   0.0000   0.0000   0.0000   0.0000   0.0000   0.0000   0.0000   0.0000 </r>
        <r>  -2.1783   0.0000   0.0000   0.0000   0.0000   0.0000   0.0000   0.0000   0.0000   0.0000 </r>
        <r>  -2.0745   0.0000   0.0000   0.0000   0.0000   0.0000   0.0000   0.0000   0.0000   0.0000 </r>
        <r>  -1.9706   0.0000   0.0000   0.0000   0.0000   0.0000   0.0000   0.0000   0.0000   0.0000 </r>
[...]
        <r>  16.8222   0.0000   0.0000   0.0001   0.0000   0.0000   0.0000   0.0000   0.0000   0.0000 </r>
        <r>  16.9261   0.0000   0.0000   0.0000   0.0000   0.0000   0.0000   0.0000   0.0000   0.0000 </r>
        <r>  17.0299   0.0000   0.0000   0.0000   0.0000   0.0000   0.0000   0.0000   0.0000   0.0000 </r>
        <r>  17.1337   0.0000   0.0000   0.0000   0.0000   0.0000   0.0000   0.0000   0.0000   0.0000 </r>
        <r>  17.2375   0.0000   0.0000   0.0000   0.0000   0.0000   0.0000   0.0000   0.0000   0.0000 </r>
        <r>  17.3414   0.0000   0.0000   0.0000   0.0000   0.0000   0.0000   0.0000   0.0000   0.0000 </r>
        <r>  17.4452   0.0000   0.0000   0.0000   0.0000   0.0000   0.0000   0.0000   0.0000   0.0000 </r>
        <r>  17.5490   0.0000   0.0000   0.0000   0.0000   0.0000   0.0000   0.0000   0.0000   0.0000 </r>
        <r>  17.6528   0.0000   0.0000   0.0000   0.0000   0.0000   0.0000   0.0000   0.0000   0.0000 </r>
        <r>  17.7567   0.0000   0.0000   0.0000   0.0000   0.0000   0.0000   0.0000   0.0000   0.0000 </r>
        <r>  17.8605   0.0000   0.0000   0.0000   0.0000   0.0000   0.0000   0.0000   0.0000   0.0000 </r>
       </set>
      </set>
     </set>
    </array>
   </partial>
  </dos>
  <projected>
   <eigenvalues>
    <array>
     <dimension dim="1">band</dimension>
     <dimension dim="2">kpoint</dimension>
     <dimension dim="3">spin</dimension>
     <field>eigene</field>
     <field>occ</field>
     <set>
      <set comment="spin 1">
       <set comment="kpoint 1">
        <r>  -11.8721    1.0000 </r>
        <r>  -11.0543    1.0000 </r>
        <r>  -11.0543    1.0000 </r>
        <r>  -11.0543    1.0000 </r>
        <r>    0.9733    1.0000 </r>
        <r>    0.9733    1.0000 </r>
        <r>    0.9733    1.0000 </r>
        <r>    2.1138    1.0000 </r>
        <r>    2.8601    1.0000 </r>
        <r>    2.8601    1.0000 </r>
        <r>    2.8601    1.0000 </r>
        <r>    3.7531    1.0000 </r>
        <r>    3.7531    1.0000 </r>
        <r>    3.7531    1.0000 </r>
        <r>    4.4239    1.0000 </r>
        <r>    4.4239    1.0000 </r>
        <r>   11.9069    0.0000 </r>
        <r>   14.5286    0.0000 </r>
        <r>   14.5286    0.0000 </r>
        <r>   14.5286    0.0000 </r>
        <r>   16.4447    0.0000 </r>
       </set>
      </set>
     </set>
    </array>
   </eigenvalues>
   <array>
    <dimension dim="1">ion</dimension>
    <dimension dim="2">band</dimension>
    <dimension dim="3">kpoint</dimension>
    <dimension dim="4">spin</dimension>
    <field>  s</field>
    <field> py</field>
    <field> pz</field>
    <field> px</field>
    <field>dxy</field>
    <field>dyz</field>
    <field>dz2</field>
    <field>dxz</field>
    <field>dx2</field>
    <set>
     <set comment="spin1">
      <set comment="kpoint 1">
       <set comment="band 1">
        <r>  0.0060  0.0007  0.0007  0.0007  0.0000  0.0000  0.0000  0.0000  0.0000 </r>
        <r>  0.0060  0.0007  0.0007  0.0007  0.0000  0.0000  0.0000  0.0000  0.0000 </r>
        <r>  0.0060  0.0007  0.0007  0.0007  0.0000  0.0000  0.0000  0.0000  0.0000 </r>
        <r>  0.0060  0.0007  0.0007  0.0007  0.0000  0.0000  0.0000  0.0000  0.0000 </r>
        <r>  0.1818  0.0001  0.0001  0.0001  0.0000  0.0000  0.0000  0.0000  0.0000 </r>
        <r>  0.1818  0.0001  0.0001  0.0001  0.0000  0.0000  0.0000  0.0000  0.0000 </r>
        <r>  0.1818  0.0001  0.0001  0.0001  0.0000  0.0000  0.0000  0.0000  0.0000 </r>
        <r>  0.1818  0.0001  0.0001  0.0001  0.0000  0.0000  0.0000  0.0000  0.0000 </r>
       </set>
       <set comment="band 2">
        <r>  0.0017  0.0008  0.0000  0.0002  0.0000  0.0000  0.0000  0.0000  0.0000 </r>
        <r>  0.0003  0.0000  0.0010  0.0018  0.0000  0.0000  0.0000  0.0000  0.0000 </r>
        <r>  0.0009  0.0018  0.0003  0.0000  0.0000  0.0000  0.0000  0.0000  0.0000 </r>
        <r>  0.0000  0.0003  0.0019  0.0009  0.0000  0.0000  0.0000  0.0000  0.0000 </r>
        <r>  0.4762  0.0000  0.0000  0.0000  0.0000  0.0000  0.0000  0.0000  0.0000 </r>
        <r>  0.2427  0.0000  0.0001  0.0000  0.0000  0.0000  0.0000  0.0000  0.0000 </r>
        <r>  0.0729  0.0000  0.0001  0.0000  0.0000  0.0000  0.0000  0.0000  0.0000 </r>
        <r>  0.0044  0.0000  0.0001  0.0000  0.0000  0.0000  0.0000  0.0000  0.0000 </r>
       </set>
       <set comment="band 3">
        <r>  0.0002  0.0001  0.0020  0.0008  0.0000  0.0000  0.0000  0.0000  0.0000 </r>
        <r>  0.0007  0.0020  0.0001  0.0003  0.0000  0.0000  0.0000  0.0000  0.0000 </r>
        <r>  0.0001  0.0002  0.0007  0.0021  0.0000  0.0000  0.0000  0.0000  0.0000 </r>
        <r>  0.0019  0.0006  0.0002  0.0001  0.0000  0.0000  0.0000  0.0000  0.0000 </r>
        <r>  0.0579  0.0000  0.0000  0.0000  0.0000  0.0000  0.0000  0.0000  0.0000 </r>
        <r>  0.0197  0.0000  0.0000  0.0001  0.0000  0.0000  0.0000  0.0000  0.0000 </r>
        <r>  0.1887  0.0000  0.0000  0.0000  0.0000  0.0000  0.0000  0.0000  0.0000 </r>
        <r>  0.5298  0.0000  0.0000  0.0000  0.0000  0.0000  0.0000  0.0000  0.0000 </r>
       </set>
       <set comment="band 4">
        <r>  0.0002  0.0014  0.0002  0.0013  0.0000  0.0000  0.0000  0.0000  0.0000 </r>
        <r>  0.0012  0.0003  0.0012  0.0002  0.0000  0.0000  0.0000  0.0000  0.0000 </r>
        <r>  0.0012  0.0003  0.0012  0.0002  0.0000  0.0000  0.0000  0.0000  0.0000 </r>
        <r>  0.0002  0.0014  0.0002  0.0013  0.0000  0.0000  0.0000  0.0000  0.0000 </r>
        <r>  0.0631  0.0001  0.0000  0.0000  0.0000  0.0000  0.0000  0.0000  0.0000 </r>
        <r>  0.3347  0.0001  0.0000  0.0000  0.0000  0.0000  0.0000  0.0000  0.0000 </r>
        <r>  0.3355  0.0001  0.0000  0.0000  0.0000  0.0000  0.0000  0.0000  0.0000 </r>
        <r>  0.0629  0.0001  0.0000  0.0000  0.0000  0.0000  0.0000  0.0000  0.0000 </r>
       </set>
       <set comment="band 5">
        <r>  0.0277  0.0039  0.0022  0.0075  0.0000  0.0000  0.0000  0.0000  0.0000 </r>
        <r>  0.0025  0.0007  0.0001  0.0034  0.0000  0.0000  0.0000  0.0000  0.0000 </r>
        <r>  0.0065  0.0005  0.0007  0.0045  0.0000  0.0000  0.0000  0.0000  0.0000 </r>
        <r>  0.0166  0.0030  0.0004  0.0061  0.0000  0.0000  0.0000  0.0000  0.0000 </r>
        <r>  0.0035  0.0067  0.0175  0.0298  0.0000  0.0000  0.0000  0.0000  0.0000 </r>
        <r>  0.0008  0.0690  0.0022  0.0765  0.0000  0.0000  0.0000  0.0000  0.0000 </r>
        <r>  0.0003  0.0477  0.0139  0.1038  0.0000  0.0000  0.0000  0.0000  0.0000 </r>
        <r>  0.0021  0.0062  0.0500  0.0467  0.0000  0.0000  0.0000  0.0000  0.0000 </r>
       </set>
       <set comment="band 6">
        <r>  0.0042  0.0040  0.0002  0.0006  0.0000  0.0000  0.0000  0.0000  0.0000 </r>
        <r>  0.0223  0.0069  0.0011  0.0035  0.0000  0.0000  0.0000  0.0000  0.0000 </r>
        <r>  0.0225  0.0070  0.0011  0.0035  0.0000  0.0000  0.0000  0.0000  0.0000 </r>
        <r>  0.0042  0.0040  0.0002  0.0006  0.0000  0.0000  0.0000  0.0000  0.0000 </r>
        <r>  0.0005  0.0923  0.0062  0.0592  0.0000  0.0000  0.0000  0.0000  0.0000 </r>
        <r>  0.0028  0.0387  0.0323  0.0060  0.0000  0.0000  0.0000  0.0000  0.0000 </r>
        <r>  0.0028  0.0389  0.0328  0.0061  0.0000  0.0000  0.0000  0.0000  0.0000 </r>
        <r>  0.0005  0.0919  0.0061  0.0595  0.0000  0.0000  0.0000  0.0000  0.0000 </r>
       </set>
       <set comment="band 7">
        <r>  0.0080  0.0003  0.0058  0.0001  0.0000  0.0000  0.0000  0.0000  0.0000 </r>
        <r>  0.0151  0.0006  0.0070  0.0013  0.0000  0.0000  0.0000  0.0000  0.0000 </r>
        <r>  0.0110  0.0008  0.0064  0.0002  0.0000  0.0000  0.0000  0.0000  0.0000 </r>
        <r>  0.0191  0.0012  0.0076  0.0015  0.0000  0.0000  0.0000  0.0000  0.0000 </r>
        <r>  0.0010  0.0185  0.0938  0.0285  0.0000  0.0000  0.0000  0.0000  0.0000 </r>
        <r>  0.0014  0.0098  0.0829  0.0349  0.0000  0.0000  0.0000  0.0000  0.0000 </r>
        <r>  0.0019  0.0310  0.0708  0.0077  0.0000  0.0000  0.0000  0.0000  0.0000 </r>
        <r>  0.0024  0.0194  0.0614  0.0113  0.0000  0.0000  0.0000  0.0000  0.0000 </r>
       </set>
       <set comment="band 8">
        <r>  0.0180  0.0004  0.0004  0.0004  0.0000  0.0000  0.0000  0.0000  0.0000 </r>
        <r>  0.0180  0.0004  0.0004  0.0004  0.0000  0.0000  0.0000  0.0000  0.0000 </r>
        <r>  0.0180  0.0004  0.0004  0.0004  0.0000  0.0000  0.0000  0.0000  0.0000 </r>
        <r>  0.0180  0.0004  0.0004  0.0004  0.0000  0.0000  0.0000  0.0000  0.0000 </r>
        <r>  0.0095  0.0426  0.0426  0.0426  0.0000  0.0000  0.0000  0.0000  0.0000 </r>
        <r>  0.0095  0.0426  0.0426  0.0426  0.0000  0.0000  0.0000  0.0000  0.0000 </r>
        <r>  0.0095  0.0426  0.0426  0.0426  0.0000  0.0000  0.0000  0.0000  0.0000 </r>
        <r>  0.0095  0.0426  0.0426  0.0426  0.0000  0.0000  0.0000  0.0000  0.0000 </r>
       </set>
       <set comment="band 9">
        <r>  0.0051  0.0010  0.0015  0.0009  0.0000  0.0000  0.0000  0.0000  0.0000 </r>
        <r>  0.0003  0.0029  0.0019  0.0079  0.0000  0.0000  0.0000  0.0000  0.0000 </r>
        <r>  0.0014  0.0065  0.0002  0.0038  0.0000  0.0000  0.0000  0.0000  0.0000 </r>
        <r>  0.0020  0.0004  0.0060  0.0030  0.0000  0.0000  0.0000  0.0000  0.0000 </r>
        <r>  0.0015  0.1158  0.1162  0.1147  0.0000  0.0000  0.0000  0.0000  0.0000 </r>
        <r>  0.0004  0.0321  0.0313  0.0305  0.0000  0.0000  0.0000  0.0000  0.0000 </r>
        <r>  0.0001  0.0058  0.0059  0.0055  0.0000  0.0000  0.0000  0.0000  0.0000 </r>
        <r>  0.0006  0.0444  0.0456  0.0438  0.0000  0.0000  0.0000  0.0000  0.0000 </r>
       </set>
       <set comment="band 10">
        <r>  0.0007  0.0016  0.0068  0.0033  0.0000  0.0000  0.0000  0.0000  0.0000 </r>
        <r>  0.0027  0.0041  0.0033  0.0005  0.0000  0.0000  0.0000  0.0000  0.0000 </r>
        <r>  0.0014  0.0006  0.0052  0.0046  0.0000  0.0000  0.0000  0.0000  0.0000 </r>
        <r>  0.0038  0.0025  0.0023  0.0010  0.0000  0.0000  0.0000  0.0000  0.0000 </r>
        <r>  0.0002  0.0173  0.0162  0.0174  0.0000  0.0000  0.0000  0.0000  0.0000 </r>
        <r>  0.0004  0.0321  0.0310  0.0327  0.0000  0.0000  0.0000  0.0000  0.0000 </r>
        <r>  0.0008  0.0623  0.0602  0.0616  0.0000  0.0000  0.0000  0.0000  0.0000 </r>
        <r>  0.0012  0.0877  0.0857  0.0873  0.0000  0.0000  0.0000  0.0000  0.0000 </r>
       </set>
       <set comment="band 11">
        <r>  0.0007  0.0063  0.0007  0.0048  0.0000  0.0000  0.0000  0.0000  0.0000 </r>
        <r>  0.0036  0.0020  0.0038  0.0006  0.0000  0.0000  0.0000  0.0000  0.0000 </r>
        <r>  0.0037  0.0019  0.0035  0.0006  0.0000  0.0000  0.0000  0.0000  0.0000 </r>
        <r>  0.0007  0.0061  0.0007  0.0050  0.0000  0.0000  0.0000  0.0000  0.0000 </r>
        <r>  0.0002  0.0148  0.0156  0.0158  0.0000  0.0000  0.0000  0.0000  0.0000 </r>
        <r>  0.0011  0.0837  0.0856  0.0847  0.0000  0.0000  0.0000  0.0000  0.0000 </r>
        <r>  0.0011  0.0798  0.0818  0.0808  0.0000  0.0000  0.0000  0.0000  0.0000 </r>
        <r>  0.0002  0.0158  0.0166  0.0168  0.0000  0.0000  0.0000  0.0000  0.0000 </r>
       </set>
       <set comment="band 12">
        <r>  0.0000  0.0030  0.0000  0.0030  0.0000  0.0000  0.0000  0.0000  0.0000 </r>
        <r>  0.0000  0.0030  0.0000  0.0030  0.0000  0.0000  0.0000  0.0000  0.0000 </r>
        <r>  0.0000  0.0030  0.0000  0.0030  0.0000  0.0000  0.0000  0.0000  0.0000 </r>
        <r>  0.0000  0.0030  0.0000  0.0030  0.0000  0.0000  0.0000  0.0000  0.0000 </r>
        <r>  0.0000  0.0850  0.0000  0.0850  0.0000  0.0000  0.0000  0.0000  0.0000 </r>
        <r>  0.0000  0.0850  0.0000  0.0850  0.0000  0.0000  0.0000  0.0000  0.0000 </r>
        <r>  0.0000  0.0850  0.0000  0.0850  0.0000  0.0000  0.0000  0.0000  0.0000 </r>
        <r>  0.0000  0.0850  0.0000  0.0850  0.0000  0.0000  0.0000  0.0000  0.0000 </r>
       </set>
       <set comment="band 13">
        <r>  0.0000  0.0011  0.0050  0.0019  0.0000  0.0000  0.0000  0.0000  0.0000 </r>
        <r>  0.0000  0.0011  0.0011  0.0019  0.0000  0.0000  0.0000  0.0000  0.0000 </r>
        <r>  0.0000  0.0011  0.0011  0.0019  0.0000  0.0000  0.0000  0.0000  0.0000 </r>
        <r>  0.0000  0.0011  0.0050  0.0019  0.0000  0.0000  0.0000  0.0000  0.0000 </r>
        <r>  0.0000  0.0301  0.1399  0.0549  0.0000  0.0000  0.0000  0.0000  0.0000 </r>
        <r>  0.0000  0.0301  0.0301  0.0549  0.0000  0.0000  0.0000  0.0000  0.0000 </r>
        <r>  0.0000  0.0301  0.0301  0.0549  0.0000  0.0000  0.0000  0.0000  0.0000 </r>
        <r>  0.0000  0.0301  0.1399  0.0549  0.0000  0.0000  0.0000  0.0000  0.0000 </r>
       </set>
       <set comment="band 14">
        <r>  0.0000  0.0019  0.0011  0.0011  0.0000  0.0000  0.0000  0.0000  0.0000 </r>
        <r>  0.0000  0.0019  0.0050  0.0011  0.0000  0.0000  0.0000  0.0000  0.0000 </r>
        <r>  0.0000  0.0019  0.0050  0.0011  0.0000  0.0000  0.0000  0.0000  0.0000 </r>
        <r>  0.0000  0.0019  0.0011  0.0011  0.0000  0.0000  0.0000  0.0000  0.0000 </r>
        <r>  0.0000  0.0549  0.0301  0.0301  0.0000  0.0000  0.0000  0.0000  0.0000 </r>
        <r>  0.0000  0.0549  0.1399  0.0301  0.0000  0.0000  0.0000  0.0000  0.0000 </r>
        <r>  0.0000  0.0549  0.1399  0.0301  0.0000  0.0000  0.0000  0.0000  0.0000 </r>
        <r>  0.0000  0.0549  0.0301  0.0301  0.0000  0.0000  0.0000  0.0000  0.0000 </r>
       </set>
       <set comment="band 15">
        <r>  0.0000  0.0010  0.0000  0.0010  0.0000  0.0000  0.0000  0.0000  0.0000 </r>
        <r>  0.0000  0.0010  0.0000  0.0010  0.0000  0.0000  0.0000  0.0000  0.0000 </r>
        <r>  0.0000  0.0010  0.0000  0.0010  0.0000  0.0000  0.0000  0.0000  0.0000 </r>
        <r>  0.0000  0.0010  0.0000  0.0010  0.0000  0.0000  0.0000  0.0000  0.0000 </r>
        <r>  0.0000  0.0915  0.0000  0.0915  0.0000  0.0000  0.0000  0.0000  0.0000 </r>
        <r>  0.0000  0.0915  0.0000  0.0915  0.0000  0.0000  0.0000  0.0000  0.0000 </r>
        <r>  0.0000  0.0915  0.0000  0.0915  0.0000  0.0000  0.0000  0.0000  0.0000 </r>
        <r>  0.0000  0.0915  0.0000  0.0915  0.0000  0.0000  0.0000  0.0000  0.0000 </r>
       </set>
       <set comment="band 16">
        <r>  0.0000  0.0003  0.0013  0.0003  0.0000  0.0000  0.0000  0.0000  0.0000 </r>
        <r>  0.0000  0.0003  0.0013  0.0003  0.0000  0.0000  0.0000  0.0000  0.0000 </r>
        <r>  0.0000  0.0003  0.0013  0.0003  0.0000  0.0000  0.0000  0.0000  0.0000 </r>
        <r>  0.0000  0.0003  0.0013  0.0003  0.0000  0.0000  0.0000  0.0000  0.0000 </r>
        <r>  0.0000  0.0305  0.1220  0.0305  0.0000  0.0000  0.0000  0.0000  0.0000 </r>
        <r>  0.0000  0.0305  0.1220  0.0305  0.0000  0.0000  0.0000  0.0000  0.0000 </r>
        <r>  0.0000  0.0305  0.1220  0.0305  0.0000  0.0000  0.0000  0.0000  0.0000 </r>
        <r>  0.0000  0.0305  0.1220  0.0305  0.0000  0.0000  0.0000  0.0000  0.0000 </r>
       </set>
       <set comment="band 17">
        <r>  0.0327  0.0060  0.0060  0.0060  0.0000  0.0000  0.0000  0.0000  0.0000 </r>
        <r>  0.0327  0.0060  0.0060  0.0060  0.0000  0.0000  0.0000  0.0000  0.0000 </r>
        <r>  0.0327  0.0060  0.0060  0.0060  0.0000  0.0000  0.0000  0.0000  0.0000 </r>
        <r>  0.0327  0.0060  0.0060  0.0060  0.0000  0.0000  0.0000  0.0000  0.0000 </r>
        <r>  0.0415  0.0118  0.0118  0.0118  0.0000  0.0000  0.0000  0.0000  0.0000 </r>
        <r>  0.0415  0.0118  0.0118  0.0118  0.0000  0.0000  0.0000  0.0000  0.0000 </r>
        <r>  0.0415  0.0118  0.0118  0.0118  0.0000  0.0000  0.0000  0.0000  0.0000 </r>
        <r>  0.0415  0.0118  0.0118  0.0118  0.0000  0.0000  0.0000  0.0000  0.0000 </r>
       </set>
       <set comment="band 18">
        <r>  0.0290  0.0085  0.0145  0.0009  0.0000  0.0000  0.0000  0.0000  0.0000 </r>
        <r>  0.0024  0.0089  0.0052  0.0134  0.0000  0.0000  0.0000  0.0000  0.0000 </r>
        <r>  0.0080  0.0184  0.0026  0.0058  0.0000  0.0000  0.0000  0.0000  0.0000 </r>
        <r>  0.0156  0.0027  0.0208  0.0022  0.0000  0.0000  0.0000  0.0000  0.0000 </r>
        <r>  0.0326  0.0129  0.0078  0.0267  0.0000  0.0000  0.0000  0.0000  0.0000 </r>
        <r>  0.0090  0.0019  0.0031  0.0171  0.0000  0.0000  0.0000  0.0000  0.0000 </r>
        <r>  0.0027  0.0025  0.0002  0.0127  0.0000  0.0000  0.0000  0.0000  0.0000 </r>
        <r>  0.0176  0.0094  0.0008  0.0211  0.0000  0.0000  0.0000  0.0000  0.0000 </r>
       </set>
       <set comment="band 19">
        <r>  0.0104  0.0006  0.0029  0.0230  0.0000  0.0000  0.0000  0.0000  0.0000 </r>
        <r>  0.0357  0.0109  0.0008  0.0113  0.0000  0.0000  0.0000  0.0000  0.0000 </r>
        <r>  0.0001  0.0054  0.0173  0.0051  0.0000  0.0000  0.0000  0.0000  0.0000 </r>
        <r>  0.0099  0.0228  0.0031  0.0006  0.0000  0.0000  0.0000  0.0000  0.0000 </r>
        <r>  0.0116  0.0070  0.0176  0.0003  0.0000  0.0000  0.0000  0.0000  0.0000 </r>
        <r>  0.0001  0.0018  0.0095  0.0017  0.0000  0.0000  0.0000  0.0000  0.0000 </r>
        <r>  0.0396  0.0135  0.0277  0.0132  0.0000  0.0000  0.0000  0.0000  0.0000 </r>
        <r>  0.0110  0.0004  0.0173  0.0066  0.0000  0.0000  0.0000  0.0000  0.0000 </r>
       </set>
       <set comment="band 20">
        <r>  0.0021  0.0169  0.0085  0.0021  0.0000  0.0000  0.0000  0.0000  0.0000 </r>
        <r>  0.0039  0.0061  0.0199  0.0013  0.0000  0.0000  0.0000  0.0000  0.0000 </r>
        <r>  0.0339  0.0022  0.0060  0.0150  0.0000  0.0000  0.0000  0.0000  0.0000 </r>
        <r>  0.0162  0.0004  0.0020  0.0232  0.0000  0.0000  0.0000  0.0000  0.0000 </r>
        <r>  0.0023  0.0093  0.0039  0.0021  0.0000  0.0000  0.0000  0.0000  0.0000 </r>
        <r>  0.0376  0.0255  0.0165  0.0102  0.0000  0.0000  0.0000  0.0000  0.0000 </r>
        <r>  0.0043  0.0131  0.0013  0.0030  0.0000  0.0000  0.0000  0.0000  0.0000 </r>
        <r>  0.0180  0.0194  0.0111  0.0013  0.0000  0.0000  0.0000  0.0000  0.0000 </r>
       </set>
       <set comment="band 21">
        <r>  0.0725  0.0006  0.0004  0.0015  0.0000  0.0000  0.0000  0.0000  0.0000 </r>
        <r>  0.0043  0.0002  0.0001  0.0009  0.0000  0.0000  0.0000  0.0000  0.0000 </r>
        <r>  0.0187  0.0002  0.0002  0.0011  0.0000  0.0000  0.0000  0.0000  0.0000 </r>
        <r>  0.0325  0.0005  0.0000  0.0012  0.0000  0.0000  0.0000  0.0000  0.0000 </r>
        <r>  0.0062  0.0135  0.0240  0.0044  0.0000  0.0000  0.0000  0.0000  0.0000 </r>
        <r>  0.0016  0.0591  0.0031  0.0292  0.0000  0.0000  0.0000  0.0000  0.0000 </r>
        <r>  0.0004  0.0272  0.0153  0.0621  0.0000  0.0000  0.0000  0.0000  0.0000 </r>
        <r>  0.0028  0.0034  0.0579  0.0175  0.0000  0.0000  0.0000  0.0000  0.0000 </r>
       </set>
      </set>
     </set>
    </set>
   </array>
  </projected>
 </calculation>
 <structure name="finalpos" >
  <crystal>
   <varray name="basis" >
    <v>       4.21120000       0.00000000       0.00000000 </v>
    <v>       0.00000000       4.21120000       0.00000000 </v>
    <v>       0.00000000       0.00000000       4.21120000 </v>
   </varray>
   <i name="volume">     74.68228595 </i>
   <varray name="rec_basis" >
    <v>       0.23746201       0.00000000       0.00000000 </v>
    <v>       0.00000000       0.23746201       0.00000000 </v>
    <v>       0.00000000       0.00000000       0.23746201 </v>
   </varray>
  </crystal>
  <varray name="positions" >
   <v>       0.50000000       0.50000000       0.50000000 </v>
   <v>       0.50000000       0.00000000       0.00000000 </v>
   <v>       0.00000000       0.50000000       0.00000000 </v>
   <v>       0.00000000       0.00000000       0.50000000 </v>
   <v>       0.00000000       0.00000000       0.00000000 </v>
   <v>       0.50000000       0.00000000       0.50000000 </v>
   <v>       0.00000000       0.50000000       0.50000000 </v>
   <v>       0.50000000       0.50000000       0.00000000 </v>
  </varray>
 </structure>
</modeling>
