   1   1   1   0
  0.1482975E+02  0.2757716E-09  0.2757716E-09  0.2757716E-09  0.5000000E-15
   1.0000000000000000E-004
  CAR 
 Au, FCC                                 
     30.86805226     -5.21187940  301      7.74682665      1.00000000
     -5.212  0.0000E+00  0.0000E+00
     -5.092  0.0000E+00  0.0000E+00
     -4.971  0.0000E+00  0.0000E+00
     -4.851  0.0000E+00  0.0000E+00
     -4.731  0.0000E+00  0.0000E+00
     -4.611  0.0000E+00  0.0000E+00
     -4.490  0.0000E+00  0.0000E+00
     -4.370  0.0000E+00  0.0000E+00
     -4.250  0.0000E+00  0.0000E+00
     -4.129  0.1010E-15  0.1214E-16
     -4.009  0.2019E-10  0.2429E-11
     -3.889  0.2379E-06  0.2862E-07
     -3.769  0.1746E-03  0.2103E-04
     -3.648  0.8890E-02  0.1090E-02
     -3.528  0.3848E-01  0.5718E-02
     -3.408  0.1682E-01  0.7741E-02
     -3.288  0.9149E-02  0.8841E-02
     -3.167  0.8839E-01  0.1947E-01
     -3.047  0.8917E-01  0.3020E-01
     -2.927  0.1342E-01  0.3181E-01
     -2.807  0.7184E-01  0.4045E-01
     -2.686  0.1035E+00  0.5290E-01
     -2.566  0.2035E-01  0.5534E-01
     -2.446  0.8322E-01  0.6535E-01
     -2.325  0.1427E+00  0.8251E-01
     -2.205  0.4002E-01  0.8732E-01
     -2.085  0.1575E+00  0.1063E+00
     -1.965  0.2021E+00  0.1306E+00
     -1.844  0.1013E+00  0.1428E+00
     -1.724  0.9952E-01  0.1547E+00
     -1.604  0.1811E-01  0.1569E+00
     -1.484  0.1274E+00  0.1722E+00
     -1.363  0.3371E+00  0.2128E+00
     -1.243  0.1804E+00  0.2345E+00
     -1.123  0.2962E+00  0.2701E+00
     -1.003  0.4053E+00  0.3188E+00
     -0.882  0.5517E+00  0.3852E+00
     -0.762  0.5524E+00  0.4516E+00
     -0.642  0.8758E+00  0.5569E+00
     -0.521  0.9501E+00  0.6712E+00
     -0.401  0.9612E+00  0.7868E+00
     -0.281  0.1593E+01  0.9784E+00
     -0.161  0.1470E+01  0.1155E+01
     -0.040  0.1461E+01  0.1331E+01
      0.080  0.1861E+01  0.1555E+01
      0.200  0.1529E+01  0.1739E+01
      0.320  0.1109E+01  0.1872E+01
      0.441  0.1454E+01  0.2047E+01
      0.561  0.1583E+01  0.2237E+01
      0.681  0.1057E+01  0.2364E+01
      0.801  0.1166E+01  0.2505E+01
      0.922  0.7049E+00  0.2589E+01
      1.042  0.1125E+01  0.2725E+01
      1.162  0.1853E+01  0.2947E+01
      1.283  0.1443E+01  0.3121E+01
      1.403  0.1262E+01  0.3273E+01
      1.523  0.1649E+01  0.3471E+01
      1.643  0.1337E+01  0.3632E+01
      1.764  0.1490E+01  0.3811E+01
      1.884  0.1646E+01  0.4009E+01
      2.004  0.2148E+01  0.4267E+01
      2.124  0.1850E+01  0.4490E+01
      2.245  0.1786E+01  0.4705E+01
      2.365  0.1829E+01  0.4925E+01
      2.485  0.2444E+01  0.5219E+01
      2.605  0.2836E+01  0.5560E+01
      2.726  0.1836E+01  0.5781E+01
      2.846  0.1696E+01  0.5985E+01
      2.966  0.1570E+01  0.6173E+01
      3.087  0.1169E+01  0.6314E+01
      3.207  0.1383E+01  0.6480E+01
      3.327  0.1257E+01  0.6631E+01
      3.447  0.8577E+00  0.6735E+01
      3.568  0.1132E+01  0.6871E+01
      3.688  0.1885E+01  0.7097E+01
      3.808  0.2341E+01  0.7379E+01
      3.928  0.1908E+01  0.7608E+01
      4.049  0.1285E+01  0.7763E+01
      4.169  0.7929E+00  0.7858E+01
      4.289  0.1096E+01  0.7990E+01
      4.409  0.1937E+01  0.8223E+01
      4.530  0.1924E+01  0.8454E+01
      4.650  0.9582E+00  0.8570E+01
      4.770  0.5320E+00  0.8634E+01
      4.891  0.1136E+01  0.8770E+01
      5.011  0.1902E+01  0.8999E+01
      5.131  0.1426E+01  0.9171E+01
      5.251  0.1236E+01  0.9319E+01
      5.372  0.1376E+01  0.9485E+01
      5.492  0.2561E+01  0.9793E+01
      5.612  0.2940E+01  0.1015E+02
      5.732  0.1612E+01  0.1034E+02
      5.853  0.7517E+00  0.1043E+02
      5.973  0.8692E+00  0.1053E+02
      6.093  0.2735E+00  0.1057E+02
      6.213  0.2219E-01  0.1057E+02
      6.334  0.6081E-01  0.1058E+02
      6.454  0.2997E+00  0.1061E+02
      6.574  0.7059E+00  0.1070E+02
      6.694  0.5979E+00  0.1077E+02
      6.815  0.8974E-01  0.1078E+02
      6.935  0.9313E-01  0.1079E+02
      7.055  0.2765E+00  0.1083E+02
      7.176  0.1929E+00  0.1085E+02
      7.296  0.1929E+00  0.1087E+02
      7.416  0.2380E+00  0.1090E+02
      7.536  0.3489E+00  0.1094E+02
      7.657  0.3577E+00  0.1099E+02
      7.777  0.1699E+00  0.1101E+02
      7.897  0.2288E+00  0.1103E+02
      8.017  0.1290E+00  0.1105E+02
      8.138  0.2765E+00  0.1108E+02
      8.258  0.3288E+00  0.1112E+02
      8.378  0.2429E+00  0.1115E+02
      8.498  0.7747E-01  0.1116E+02
      8.619  0.3349E+00  0.1120E+02
      8.739  0.3614E+00  0.1124E+02
      8.859  0.1670E+00  0.1126E+02
      8.980  0.2873E+00  0.1130E+02
      9.100  0.3906E+00  0.1135E+02
      9.220  0.4618E+00  0.1140E+02
      9.340  0.1018E+00  0.1141E+02
      9.461  0.5352E-01  0.1142E+02
      9.581  0.2297E+00  0.1145E+02
      9.701  0.1051E+00  0.1146E+02
      9.821  0.7997E-01  0.1147E+02
      9.942  0.4128E+00  0.1152E+02
     10.062  0.3564E+00  0.1156E+02
     10.182  0.4217E+00  0.1161E+02
     10.302  0.2675E+00  0.1165E+02
     10.423  0.2390E-01  0.1165E+02
     10.543  0.3643E-01  0.1165E+02
     10.663  0.2167E+00  0.1168E+02
     10.784  0.1337E+00  0.1169E+02
     10.904  0.1255E+00  0.1171E+02
     11.024  0.3366E+00  0.1175E+02
     11.144  0.2285E+00  0.1178E+02
     11.265  0.2355E+00  0.1181E+02
     11.385  0.1024E+00  0.1182E+02
     11.505  0.4121E+00  0.1187E+02
     11.625  0.5352E+00  0.1193E+02
     11.746  0.5709E+00  0.1200E+02
     11.866  0.1783E+00  0.1202E+02
     11.986  0.7627E-01  0.1203E+02
     12.106  0.4537E+00  0.1209E+02
     12.227  0.4996E+00  0.1215E+02
     12.347  0.1406E+00  0.1216E+02
     12.467  0.6269E-01  0.1217E+02
     12.588  0.2641E+00  0.1220E+02
     12.708  0.4541E+00  0.1226E+02
     12.828  0.5447E+00  0.1232E+02
     12.948  0.1061E+00  0.1234E+02
     13.069  0.2063E-01  0.1234E+02
     13.189  0.2524E+00  0.1237E+02
     13.309  0.4699E+00  0.1243E+02
     13.429  0.2589E+00  0.1246E+02
     13.550  0.2426E+00  0.1249E+02
     13.670  0.2288E+00  0.1251E+02
     13.790  0.2562E+00  0.1254E+02
     13.910  0.3465E+00  0.1259E+02
     14.031  0.4276E+00  0.1264E+02
     14.151  0.2222E+00  0.1266E+02
     14.271  0.1752E+00  0.1268E+02
     14.392  0.1600E+00  0.1270E+02
     14.512  0.8292E+00  0.1280E+02
     14.632  0.8794E+00  0.1291E+02
     14.752  0.2250E+00  0.1294E+02
     14.873  0.8438E-01  0.1295E+02
     14.993  0.1063E+00  0.1296E+02
     15.113  0.8451E-01  0.1297E+02
     15.233  0.1563E+00  0.1299E+02
     15.354  0.2343E+00  0.1302E+02
     15.474  0.3072E+00  0.1305E+02
     15.594  0.2508E+00  0.1308E+02
     15.714  0.8771E-01  0.1309E+02
     15.835  0.2555E+00  0.1312E+02
     15.955  0.3521E+00  0.1317E+02
     16.075  0.3680E+00  0.1321E+02
     16.196  0.2902E+00  0.1325E+02
     16.316  0.3464E+00  0.1329E+02
     16.436  0.9046E-01  0.1330E+02
     16.556  0.4236E+00  0.1335E+02
     16.677  0.9959E+00  0.1347E+02
     16.797  0.5060E+00  0.1353E+02
     16.917  0.2782E+00  0.1356E+02
     17.037  0.1115E+00  0.1358E+02
     17.158  0.1275E+00  0.1359E+02
     17.278  0.4915E+00  0.1365E+02
     17.398  0.3566E+00  0.1369E+02
     17.518  0.2078E+00  0.1372E+02
     17.639  0.4477E+00  0.1377E+02
     17.759  0.2002E+00  0.1380E+02
     17.879  0.1477E+00  0.1382E+02
     18.000  0.3468E+00  0.1386E+02
     18.120  0.6473E+00  0.1393E+02
     18.240  0.5246E+00  0.1400E+02
     18.360  0.2491E+00  0.1403E+02
     18.481  0.3435E+00  0.1407E+02
     18.601  0.1639E+00  0.1409E+02
     18.721  0.3756E+00  0.1413E+02
     18.841  0.6013E+00  0.1421E+02
     18.962  0.6442E+00  0.1428E+02
     19.082  0.4772E+00  0.1434E+02
     19.202  0.4401E+00  0.1439E+02
     19.322  0.4332E+00  0.1445E+02
     19.443  0.2910E+00  0.1448E+02
     19.563  0.5310E+00  0.1455E+02
     19.683  0.5208E+00  0.1461E+02
     19.804  0.9267E+00  0.1472E+02
     19.924  0.7757E+00  0.1481E+02
     20.044  0.2747E+00  0.1485E+02
     20.164  0.4630E+00  0.1490E+02
     20.285  0.2362E+00  0.1493E+02
     20.405  0.1152E+00  0.1494E+02
     20.525  0.9387E-01  0.1495E+02
     20.645  0.3181E+00  0.1499E+02
     20.766  0.3410E+00  0.1503E+02
     20.886  0.4960E+00  0.1509E+02
     21.006  0.1020E+01  0.1522E+02
     21.126  0.6451E+00  0.1529E+02
     21.247  0.5501E+00  0.1536E+02
     21.367  0.7475E+00  0.1545E+02
     21.487  0.2803E+00  0.1548E+02
     21.608  0.1707E+00  0.1550E+02
     21.728  0.5943E+00  0.1558E+02
     21.848  0.4009E+00  0.1562E+02
     21.968  0.3820E+00  0.1567E+02
     22.089  0.5274E+00  0.1573E+02
     22.209  0.3314E+00  0.1577E+02
     22.329  0.3504E+00  0.1582E+02
     22.449  0.7377E+00  0.1590E+02
     22.570  0.1258E+01  0.1606E+02
     22.690  0.7080E+00  0.1614E+02
     22.810  0.3816E+00  0.1619E+02
     22.930  0.4860E+00  0.1624E+02
     23.051  0.3758E+00  0.1629E+02
     23.171  0.5862E+00  0.1636E+02
     23.291  0.1065E+01  0.1649E+02
     23.412  0.5579E+00  0.1656E+02
     23.532  0.2306E+00  0.1658E+02
     23.652  0.1696E+00  0.1660E+02
     23.772  0.5871E+00  0.1667E+02
     23.893  0.5521E+00  0.1674E+02
     24.013  0.7888E+00  0.1684E+02
     24.133  0.9917E+00  0.1696E+02
     24.253  0.9400E+00  0.1707E+02
     24.374  0.4161E+00  0.1712E+02
     24.494  0.4122E+00  0.1717E+02
     24.614  0.6423E+00  0.1724E+02
     24.734  0.5329E+00  0.1731E+02
     24.855  0.3547E+00  0.1735E+02
     24.975  0.2356E+00  0.1738E+02
     25.095  0.2568E+00  0.1741E+02
     25.216  0.2181E+00  0.1744E+02
     25.336  0.1879E+00  0.1746E+02
     25.456  0.2926E+00  0.1749E+02
     25.576  0.2526E+00  0.1753E+02
     25.697  0.1104E+00  0.1754E+02
     25.817  0.1299E+00  0.1755E+02
     25.937  0.3873E+00  0.1760E+02
     26.057  0.5255E+00  0.1766E+02
     26.178  0.5454E+00  0.1773E+02
     26.298  0.1645E+00  0.1775E+02
     26.418  0.5486E-02  0.1775E+02
     26.538  0.8428E-03  0.1775E+02
     26.659  0.2774E-01  0.1775E+02
     26.779  0.1528E+00  0.1777E+02
     26.899  0.2340E+00  0.1780E+02
     27.020  0.1476E+00  0.1782E+02
     27.140  0.2567E+00  0.1785E+02
     27.260  0.2211E+00  0.1788E+02
     27.380  0.6114E-01  0.1788E+02
     27.501  0.2395E-01  0.1789E+02
     27.621  0.2160E+00  0.1791E+02
     27.741  0.2838E+00  0.1795E+02
     27.861  0.9244E-01  0.1796E+02
     27.982  0.1505E+00  0.1797E+02
     28.102  0.7645E-01  0.1798E+02
     28.222  0.3769E-02  0.1798E+02
     28.342  0.1421E-04  0.1798E+02
     28.463  0.3521E-08  0.1798E+02
     28.583  0.1463E-08  0.1798E+02
     28.703  0.5320E-05  0.1798E+02
     28.824  0.1249E-02  0.1798E+02
     28.944  0.2192E-01  0.1799E+02
     29.064  0.3653E-01  0.1799E+02
     29.184  0.2260E-01  0.1799E+02
     29.305  0.3856E-01  0.1800E+02
     29.425  0.8890E-02  0.1800E+02
     29.545  0.1746E-03  0.1800E+02
     29.665  0.2379E-06  0.1800E+02
     29.786  0.2019E-10  0.1800E+02
     29.906  0.1010E-15  0.1800E+02
     30.026  0.0000E+00  0.1800E+02
     30.146  0.0000E+00  0.1800E+02
     30.267  0.0000E+00  0.1800E+02
     30.387  0.0000E+00  0.1800E+02
     30.507  0.0000E+00  0.1800E+02
     30.628  0.0000E+00  0.1800E+02
     30.748  0.0000E+00  0.1800E+02
     30.868  0.0000E+00  0.1800E+02
     30.86805226     -5.21187940  301      7.74682665      1.00000000
     -5.212  0.0000E+00  0.0000E+00  0.0000E+00  0.0000E+00  0.0000E+00  0.0000E+00  0.0000E+00  0.0000E+00  0.0000E+00
     -5.092  0.0000E+00  0.0000E+00  0.0000E+00  0.0000E+00  0.0000E+00  0.0000E+00  0.0000E+00  0.0000E+00  0.0000E+00
     -4.971  0.0000E+00  0.0000E+00  0.0000E+00  0.0000E+00  0.0000E+00  0.0000E+00  0.0000E+00  0.0000E+00  0.0000E+00
     -4.851  0.0000E+00  0.0000E+00  0.0000E+00  0.0000E+00  0.0000E+00  0.0000E+00  0.0000E+00  0.0000E+00  0.0000E+00
     -4.731  0.0000E+00  0.0000E+00  0.0000E+00  0.0000E+00  0.0000E+00  0.0000E+00  0.0000E+00  0.0000E+00  0.0000E+00
     -4.611  0.0000E+00  0.0000E+00  0.0000E+00  0.0000E+00  0.0000E+00  0.0000E+00  0.0000E+00  0.0000E+00  0.0000E+00
     -4.490  0.0000E+00  0.0000E+00  0.0000E+00  0.0000E+00  0.0000E+00  0.0000E+00  0.0000E+00  0.0000E+00  0.0000E+00
     -4.370  0.0000E+00  0.0000E+00  0.0000E+00  0.0000E+00  0.0000E+00  0.0000E+00  0.0000E+00  0.0000E+00  0.0000E+00
     -4.250  0.0000E+00  0.0000E+00  0.0000E+00  0.0000E+00  0.0000E+00  0.0000E+00  0.0000E+00  0.0000E+00  0.0000E+00
     -4.129  0.7002E-16  0.2541E-18  0.2541E-18  0.2541E-18  0.9582E-20  0.9582E-20  0.3237E-32  0.9582E-20  0.7622E-31
     -4.009  0.1400E-10  0.5083E-13  0.5083E-13  0.5083E-13  0.1916E-14  0.1916E-14  0.6474E-27  0.1916E-14  0.1525E-25
     -3.889  0.1650E-06  0.5989E-09  0.5989E-09  0.5989E-09  0.2258E-10  0.2258E-10  0.7627E-23  0.2258E-10  0.1796E-21
     -3.769  0.1211E-03  0.4395E-06  0.4395E-06  0.4395E-06  0.1657E-07  0.1657E-07  0.5597E-20  0.1657E-07  0.1318E-18
     -3.648  0.6165E-02  0.2238E-04  0.2238E-04  0.2238E-04  0.8437E-06  0.8437E-06  0.2489E-15  0.8437E-06  0.7526E-15
     -3.528  0.2668E-01  0.9685E-04  0.9685E-04  0.9685E-04  0.3651E-05  0.3651E-05  0.8239E-11  0.3651E-05  0.2472E-10
     -3.408  0.1166E-01  0.4232E-04  0.4232E-04  0.4359E-04  0.1646E-05  0.1599E-05  0.1663E-07  0.1646E-05  0.4988E-07
     -3.288  0.6160E-02  0.2158E-04  0.2158E-04  0.1897E-03  0.7447E-05  0.1210E-05  0.2215E-05  0.7447E-05  0.6645E-05
     -3.167  0.5937E-01  0.2074E-03  0.2074E-03  0.1958E-02  0.7688E-04  0.1195E-04  0.2306E-04  0.7688E-04  0.6919E-04
     -3.047  0.5990E-01  0.2097E-03  0.2097E-03  0.1975E-02  0.7758E-04  0.1224E-04  0.2327E-04  0.7758E-04  0.6980E-04
     -2.927  0.8904E-02  0.1171E-03  0.1171E-03  0.2030E-03  0.1343E-04  0.3873E-04  0.3254E-05  0.1343E-04  0.9763E-05
     -2.807  0.4660E-01  0.1477E-02  0.1477E-02  0.1507E-03  0.8945E-04  0.5740E-03  0.1498E-04  0.8945E-04  0.4494E-04
     -2.686  0.6713E-01  0.2130E-02  0.2130E-02  0.2157E-03  0.1292E-03  0.8278E-03  0.2165E-04  0.1292E-03  0.6471E-04
     -2.566  0.1305E-01  0.3708E-03  0.4885E-03  0.9756E-04  0.5845E-04  0.1627E-03  0.2856E-04  0.6300E-04  0.9236E-05
     -2.446  0.5180E-01  0.6733E-03  0.3561E-02  0.6701E-03  0.3710E-03  0.4837E-03  0.6250E-03  0.4826E-03  0.1070E-06
     -2.325  0.8890E-01  0.7328E-03  0.7156E-02  0.7353E-03  0.3480E-03  0.5949E-03  0.1391E-02  0.5949E-03  0.3014E-06
     -2.205  0.2465E-01  0.3054E-03  0.1550E-02  0.7354E-03  0.3051E-03  0.1204E-03  0.3536E-03  0.1322E-03  0.5161E-04
     -2.085  0.9424E-01  0.2769E-02  0.2749E-03  0.8412E-02  0.3560E-02  0.4089E-03  0.5638E-03  0.5640E-03  0.6771E-03
     -1.965  0.1207E+00  0.3537E-02  0.3827E-03  0.1078E-01  0.4632E-02  0.6378E-03  0.7040E-03  0.8827E-03  0.8652E-03
     -1.844  0.5759E-01  0.1439E-02  0.1051E-02  0.4799E-02  0.2981E-02  0.1803E-02  0.1677E-03  0.2520E-02  0.3498E-03
     -1.724  0.5564E-01  0.1308E-02  0.1305E-02  0.4520E-02  0.3135E-02  0.2240E-02  0.1064E-03  0.3131E-02  0.3171E-03
     -1.604  0.9999E-02  0.3601E-03  0.4692E-03  0.5775E-03  0.4450E-03  0.5806E-03  0.1023E-03  0.4489E-03  0.5583E-04
     -1.484  0.6738E-01  0.3747E-02  0.7458E-02  0.2449E-03  0.1680E-02  0.6252E-02  0.2943E-02  0.1812E-02  0.2857E-03
     -1.363  0.1743E+00  0.8444E-02  0.1962E-01  0.9916E-03  0.7429E-02  0.1673E-01  0.8759E-02  0.7824E-02  0.5612E-03
     -1.243  0.8792E-01  0.3651E-02  0.9969E-02  0.8937E-03  0.7205E-02  0.1105E-01  0.4739E-02  0.7270E-02  0.1560E-03
     -1.123  0.1412E+00  0.3837E-02  0.2230E-01  0.9478E-03  0.9813E-02  0.1699E-01  0.1288E-01  0.9385E-02  0.3700E-04
     -1.003  0.1585E+00  0.3176E-02  0.2001E-01  0.2841E-02  0.3736E-01  0.4289E-01  0.1084E-01  0.3636E-01  0.2125E-03
     -0.882  0.1626E+00  0.3855E-02  0.5620E-02  0.9419E-02  0.8564E-01  0.8963E-01  0.9270E-02  0.7982E-01  0.1218E-02
     -0.762  0.1526E+00  0.5667E-02  0.1775E-02  0.1521E-01  0.7245E-01  0.6742E-01  0.7194E-01  0.5456E-01  0.2364E-02
     -0.642  0.2325E+00  0.9805E-02  0.1128E-01  0.2255E-01  0.1154E+00  0.9510E-01  0.1397E+00  0.7149E-01  0.3920E-02
     -0.521  0.2095E+00  0.8798E-02  0.1972E-01  0.1157E-01  0.1163E+00  0.9668E-01  0.2317E+00  0.7309E-01  0.2618E-02
     -0.401  0.1519E+00  0.5712E-02  0.2419E-01  0.6481E-02  0.1574E+00  0.5527E-01  0.3464E+00  0.3215E-01  0.7914E-02
     -0.281  0.2646E+00  0.7635E-02  0.4434E-01  0.1371E-01  0.3710E+00  0.1408E+00  0.3825E+00  0.7739E-01  0.1342E-01
     -0.161  0.2045E+00  0.9741E-02  0.2920E-01  0.1458E-01  0.4469E+00  0.1665E+00  0.2758E+00  0.7921E-01  0.8708E-02
     -0.040  0.1572E+00  0.1539E-01  0.2656E-01  0.9884E-02  0.5130E+00  0.1180E+00  0.3431E+00  0.4696E-01  0.5809E-02
      0.080  0.1688E+00  0.1636E-01  0.3502E-01  0.9876E-02  0.7293E+00  0.1095E+00  0.4614E+00  0.4476E-01  0.1017E-01
      0.200  0.1345E+00  0.1253E-01  0.2668E-01  0.1472E-01  0.5627E+00  0.1721E+00  0.2932E+00  0.5328E-01  0.3949E-01
      0.320  0.8481E-01  0.1297E-01  0.9185E-02  0.2579E-01  0.4354E+00  0.1394E+00  0.1414E+00  0.3133E-01  0.7103E-01
      0.441  0.9162E-01  0.2430E-01  0.6731E-02  0.3632E-01  0.5934E+00  0.1540E+00  0.2396E+00  0.2470E-01  0.7909E-01
      0.561  0.7201E-01  0.2242E-01  0.9449E-02  0.2459E-01  0.5410E+00  0.2497E+00  0.3112E+00  0.2342E-01  0.1195E+00
      0.681  0.2787E-01  0.2107E-01  0.6548E-02  0.1834E-01  0.3971E+00  0.1039E+00  0.2340E+00  0.1321E-01  0.9409E-01
      0.801  0.3461E-01  0.2624E-01  0.1805E-01  0.2382E-01  0.3960E+00  0.1754E+00  0.2358E+00  0.2281E-01  0.7217E-01
      0.922  0.1729E-01  0.1639E-01  0.1203E-01  0.1527E-01  0.2081E+00  0.1318E+00  0.1584E+00  0.1525E-01  0.3366E-01
      1.042  0.1346E-01  0.2043E-01  0.2318E-01  0.2083E-01  0.4419E+00  0.1961E+00  0.1744E+00  0.2596E-01  0.6779E-01
      1.162  0.2391E-01  0.3931E-01  0.3820E-01  0.3384E-01  0.5925E+00  0.3562E+00  0.3458E+00  0.5044E-01  0.1351E+00
      1.283  0.1254E-01  0.4124E-01  0.1563E-01  0.2573E-01  0.1808E+00  0.2530E+00  0.5642E+00  0.5882E-01  0.9786E-01
      1.403  0.1455E-01  0.2903E-01  0.1572E-01  0.2058E-01  0.1762E+00  0.2740E+00  0.3929E+00  0.1032E+00  0.7885E-01
      1.523  0.2232E-01  0.1700E-01  0.2832E-01  0.2554E-01  0.4377E+00  0.3712E+00  0.2071E+00  0.2115E+00  0.1499E+00
      1.643  0.2116E-01  0.1729E-01  0.2017E-01  0.2509E-01  0.2951E+00  0.2927E+00  0.2686E+00  0.1162E+00  0.1309E+00
      1.764  0.2672E-01  0.2677E-01  0.1395E-01  0.3286E-01  0.3099E+00  0.2464E+00  0.4473E+00  0.8861E-01  0.1265E+00
      1.884  0.3117E-01  0.1863E-01  0.1953E-01  0.2563E-01  0.2967E+00  0.3925E+00  0.4220E+00  0.1358E+00  0.1359E+00
      2.004  0.6321E-01  0.2049E-01  0.6389E-01  0.5728E-01  0.4940E+00  0.6424E+00  0.2370E+00  0.1623E+00  0.1700E+00
      2.124  0.3791E-01  0.1522E-01  0.5256E-01  0.4531E-01  0.4427E+00  0.4889E+00  0.1801E+00  0.1435E+00  0.2514E+00
      2.245  0.3206E-01  0.1487E-01  0.3097E-01  0.2571E-01  0.4291E+00  0.2983E+00  0.3663E+00  0.1502E+00  0.2727E+00
      2.365  0.2650E-01  0.1550E-01  0.2566E-01  0.1738E-01  0.3837E+00  0.2837E+00  0.4608E+00  0.2586E+00  0.2025E+00
      2.485  0.3405E-01  0.2291E-01  0.4982E-01  0.2580E-01  0.4123E+00  0.5609E+00  0.4232E+00  0.4064E+00  0.3001E+00
      2.605  0.6501E-01  0.3617E-01  0.1086E+00  0.4655E-01  0.5254E+00  0.7015E+00  0.3071E+00  0.4470E+00  0.3149E+00
      2.726  0.2996E-01  0.1741E-01  0.4312E-01  0.2482E-01  0.2367E+00  0.3929E+00  0.1964E+00  0.4741E+00  0.2638E+00
      2.846  0.4087E-01  0.1781E-01  0.4872E-01  0.2292E-01  0.1460E+00  0.3592E+00  0.2521E+00  0.4094E+00  0.2457E+00
      2.966  0.5238E-01  0.1829E-01  0.7410E-01  0.2042E-01  0.1198E+00  0.3884E+00  0.2559E+00  0.2498E+00  0.2299E+00
      3.087  0.1922E-01  0.1402E-01  0.5130E-01  0.1344E-01  0.8482E-01  0.2912E+00  0.1529E+00  0.2048E+00  0.2267E+00
      3.207  0.6896E-02  0.1573E-01  0.4130E-01  0.1771E-01  0.1298E+00  0.2402E+00  0.1220E+00  0.3472E+00  0.3474E+00
      3.327  0.8941E-02  0.6979E-02  0.2675E-01  0.1000E-01  0.7640E-01  0.1366E+00  0.1737E+00  0.3101E+00  0.4158E+00
      3.447  0.6004E-02  0.2958E-02  0.1095E-01  0.5348E-02  0.2314E-01  0.6118E-01  0.1956E+00  0.1491E+00  0.3467E+00
      3.568  0.9292E-02  0.7194E-02  0.1282E-01  0.9121E-02  0.4043E-01  0.8472E-01  0.2031E+00  0.1855E+00  0.5054E+00
      3.688  0.2978E-01  0.2459E-01  0.5412E-01  0.3142E-01  0.6202E-01  0.2832E+00  0.2392E+00  0.2851E+00  0.7165E+00
      3.808  0.4901E-01  0.2918E-01  0.8675E-01  0.3315E-01  0.8960E-01  0.3403E+00  0.3460E+00  0.4385E+00  0.7282E+00
      3.928  0.3363E-01  0.1439E-01  0.4395E-01  0.1615E-01  0.7677E-01  0.1722E+00  0.3863E+00  0.3022E+00  0.7243E+00
      4.049  0.1185E-01  0.4564E-02  0.7287E-02  0.9319E-02  0.4372E-01  0.4794E-01  0.3282E+00  0.1343E+00  0.6233E+00
      4.169  0.3397E-02  0.2303E-02  0.2433E-02  0.8078E-02  0.2217E-01  0.2388E-01  0.2675E+00  0.9770E-01  0.3268E+00
      4.289  0.6209E-02  0.3701E-02  0.2022E-01  0.6859E-02  0.1156E-01  0.1591E+00  0.1238E+00  0.2481E+00  0.4568E+00
      4.409  0.1973E-01  0.6874E-02  0.4556E-01  0.1005E-01  0.7090E-01  0.2913E+00  0.1933E+00  0.5135E+00  0.6771E+00
      4.530  0.2126E-01  0.9466E-02  0.2749E-01  0.9703E-02  0.1478E+00  0.1360E+00  0.3473E+00  0.4079E+00  0.7177E+00
      4.650  0.8764E-02  0.1144E-01  0.1616E-01  0.1049E-01  0.6583E-01  0.1011E+00  0.1219E+00  0.1787E+00  0.3872E+00
      4.770  0.2961E-02  0.5918E-02  0.8592E-02  0.5503E-02  0.1821E-01  0.7885E-01  0.3540E-01  0.6975E-01  0.2782E+00
      4.891  0.1018E-01  0.3161E-02  0.2015E-01  0.4475E-02  0.3310E-01  0.1769E+00  0.5132E-01  0.3720E+00  0.4148E+00
      5.011  0.1096E-01  0.4581E-02  0.1760E-01  0.6211E-02  0.9024E-01  0.2516E+00  0.1105E+00  0.6663E+00  0.6734E+00
      5.131  0.8488E-02  0.4723E-02  0.1061E-01  0.7417E-02  0.1109E+00  0.1067E+00  0.1083E+00  0.4355E+00  0.5812E+00
      5.251  0.1047E-01  0.6549E-02  0.1245E-01  0.1088E-01  0.1296E+00  0.8012E-01  0.9657E-01  0.4386E+00  0.4004E+00
      5.372  0.1011E-01  0.7451E-02  0.1401E-01  0.9598E-02  0.1225E+00  0.1290E+00  0.1296E+00  0.5382E+00  0.3642E+00
      5.492  0.3064E-01  0.6736E-02  0.2783E-01  0.1323E-01  0.2451E+00  0.2962E+00  0.2289E+00  0.1161E+01  0.4664E+00
      5.612  0.3950E-01  0.8771E-02  0.2206E-01  0.1767E-01  0.2463E+00  0.4450E+00  0.2202E+00  0.1334E+01  0.5160E+00
      5.732  0.2084E-01  0.5573E-02  0.5127E-02  0.8475E-02  0.1756E+00  0.2873E+00  0.1743E+00  0.5871E+00  0.3056E+00
      5.853  0.4028E-02  0.1266E-02  0.6633E-03  0.2040E-02  0.3904E-01  0.1137E+00  0.3806E-01  0.4639E+00  0.7500E-01
      5.973  0.3865E-02  0.2737E-02  0.3109E-02  0.2218E-02  0.3329E-02  0.1184E+00  0.6315E-02  0.6806E+00  0.3120E-01
      6.093  0.5640E-02  0.4201E-02  0.4262E-02  0.2404E-02  0.1423E-02  0.7130E-01  0.8551E-02  0.1360E+00  0.2833E-01
      6.213  0.1055E-02  0.7247E-03  0.7268E-03  0.3738E-03  0.1852E-03  0.8757E-02  0.1514E-02  0.2656E-02  0.4600E-02
      6.334  0.5172E-02  0.1925E-02  0.2267E-02  0.5403E-03  0.2343E-03  0.2688E-01  0.5430E-02  0.2698E-03  0.1381E-01
      6.454  0.2817E-01  0.8479E-02  0.1527E-01  0.2892E-02  0.2169E-02  0.1293E+00  0.3319E-01  0.3253E-02  0.5364E-01
      6.574  0.7293E-01  0.1753E-01  0.4546E-01  0.6261E-02  0.5765E-02  0.2942E+00  0.8403E-01  0.1726E-01  0.1037E+00
      6.694  0.6525E-01  0.1383E-01  0.4814E-01  0.5635E-02  0.5175E-02  0.2383E+00  0.7262E-01  0.2348E-01  0.7041E-01
      6.815  0.1020E-01  0.1964E-02  0.9095E-02  0.9683E-03  0.8067E-03  0.3425E-01  0.1098E-01  0.4298E-02  0.7850E-02
      6.935  0.8600E-02  0.4473E-02  0.2073E-01  0.5116E-02  0.2084E-02  0.1165E-01  0.6784E-02  0.1014E-01  0.4339E-02
      7.055  0.2377E-01  0.1543E-01  0.5374E-01  0.1764E-01  0.7271E-02  0.3545E-01  0.2140E-01  0.3197E-01  0.1424E-01
      7.176  0.2120E-01  0.7936E-02  0.2884E-01  0.9086E-02  0.6675E-02  0.3094E-01  0.2235E-01  0.2961E-01  0.5245E-02
      7.296  0.1673E-01  0.1267E-01  0.1502E-01  0.1777E-01  0.4425E-01  0.1044E-01  0.3122E-01  0.8406E-02  0.5440E-02
      7.416  0.2114E-01  0.1636E-01  0.1360E-01  0.2370E-01  0.6993E-01  0.5212E-02  0.4152E-01  0.2767E-02  0.6733E-02
      7.536  0.5008E-01  0.1510E-01  0.6369E-02  0.2468E-01  0.1370E+00  0.1475E-02  0.7265E-01  0.1036E-02  0.2930E-02
      7.657  0.5643E-01  0.1326E-01  0.3119E-02  0.2296E-01  0.1483E+00  0.5521E-03  0.7600E-01  0.5113E-03  0.1911E-02
      7.777  0.2892E-01  0.4339E-02  0.5263E-03  0.1679E-01  0.6932E-01  0.1196E-03  0.2819E-01  0.8788E-03  0.3160E-02
      7.897  0.3956E-01  0.4867E-02  0.9301E-03  0.2671E-01  0.9043E-01  0.9297E-03  0.3243E-01  0.1843E-02  0.5890E-02
      8.017  0.2085E-01  0.3597E-02  0.1184E-01  0.7134E-02  0.1843E-01  0.2461E-01  0.1748E-01  0.5909E-02  0.2913E-02
      8.138  0.4270E-01  0.7974E-02  0.4261E-01  0.5524E-02  0.1909E-02  0.8044E-01  0.3479E-01  0.1692E-01  0.5404E-02
      8.258  0.4506E-01  0.9225E-02  0.6991E-01  0.6821E-02  0.9302E-03  0.9277E-01  0.2987E-01  0.1206E-01  0.8467E-02
      8.378  0.2262E-01  0.1552E-01  0.4580E-01  0.1408E-01  0.1222E-02  0.5991E-01  0.1606E-01  0.5340E-02  0.1618E-01
      8.498  0.6119E-02  0.5396E-02  0.1546E-01  0.6114E-02  0.2160E-02  0.1272E-01  0.3124E-02  0.3517E-02  0.6757E-02
      8.619  0.4430E-01  0.1427E-01  0.6990E-01  0.1812E-01  0.1384E-01  0.5376E-01  0.1059E-01  0.2136E-01  0.2531E-01
      8.739  0.5739E-01  0.1931E-01  0.5587E-01  0.1668E-01  0.1032E-01  0.7974E-01  0.1240E-01  0.1522E-01  0.3188E-01
      8.859  0.3742E-01  0.6979E-02  0.1867E-01  0.2414E-02  0.7502E-03  0.5354E-01  0.1165E-01  0.1733E-02  0.1002E-01
      8.980  0.6521E-01  0.8512E-02  0.3845E-01  0.1948E-02  0.2423E-03  0.8863E-01  0.2508E-01  0.8873E-02  0.1010E-01
      9.100  0.5974E-01  0.1831E-01  0.6602E-01  0.1513E-01  0.4487E-02  0.8685E-01  0.4193E-01  0.2435E-01  0.8517E-02
      9.220  0.4691E-01  0.3488E-01  0.7203E-01  0.3364E-01  0.1278E-01  0.9013E-01  0.5787E-01  0.1460E-01  0.1105E-01
      9.340  0.6763E-02  0.9170E-02  0.1613E-01  0.9406E-02  0.3959E-02  0.1702E-01  0.1382E-01  0.2382E-02  0.2239E-02
      9.461  0.1073E-01  0.9192E-03  0.1167E-01  0.3492E-03  0.1149E-03  0.1522E-01  0.4890E-02  0.7566E-03  0.3793E-03
      9.581  0.4774E-01  0.3069E-02  0.5070E-01  0.4440E-03  0.2149E-04  0.6682E-01  0.2044E-01  0.3158E-02  0.1488E-02
      9.701  0.2199E-01  0.1448E-02  0.2296E-01  0.3189E-03  0.3435E-03  0.3020E-01  0.9303E-02  0.1433E-02  0.6831E-03
      9.821  0.2158E-01  0.2988E-02  0.9031E-02  0.5537E-02  0.1555E-01  0.4950E-02  0.4100E-02  0.6741E-03  0.5519E-03
      9.942  0.8888E-01  0.1188E-01  0.8213E-01  0.2212E-01  0.6203E-01  0.3856E-01  0.1763E-01  0.5693E-02  0.2113E-02
     10.062  0.5763E-01  0.7582E-02  0.9731E-01  0.1185E-01  0.2804E-01  0.5316E-01  0.1791E-01  0.1127E-01  0.1155E-02
     10.182  0.7822E-01  0.1913E-01  0.6928E-01  0.2553E-01  0.3763E-01  0.5371E-01  0.3899E-01  0.2102E-01  0.2404E-02
     10.302  0.5055E-01  0.1757E-01  0.2884E-01  0.2574E-01  0.4181E-01  0.1691E-01  0.2477E-01  0.7466E-02  0.2369E-02
     10.423  0.4566E-02  0.1835E-02  0.1813E-02  0.2856E-02  0.4781E-02  0.5236E-03  0.2134E-02  0.2967E-03  0.2772E-03
     10.543  0.1135E-01  0.7153E-03  0.7467E-04  0.6241E-02  0.8642E-02  0.5135E-05  0.1029E-02  0.3031E-03  0.1761E-02
     10.663  0.6767E-01  0.4183E-02  0.3760E-03  0.3717E-01  0.5143E-01  0.2443E-04  0.6052E-02  0.1807E-02  0.1052E-01
     10.784  0.4074E-01  0.2617E-02  0.1775E-02  0.2227E-01  0.3068E-01  0.5952E-03  0.3893E-02  0.1627E-02  0.6271E-02
     10.904  0.1627E-01  0.4455E-02  0.3587E-01  0.4507E-02  0.2609E-02  0.1535E-01  0.7892E-02  0.1282E-01  0.4834E-03
     11.024  0.6254E-01  0.1613E-01  0.8100E-01  0.9485E-02  0.3399E-02  0.4582E-01  0.1925E-01  0.2799E-01  0.1181E-02
     11.144  0.6326E-01  0.1069E-01  0.2312E-01  0.2047E-01  0.2121E-01  0.1883E-01  0.8153E-02  0.1169E-01  0.6395E-02
     11.265  0.6477E-01  0.7493E-02  0.5069E-02  0.3956E-01  0.4473E-01  0.1111E-02  0.7151E-02  0.1189E-01  0.1261E-01
     11.385  0.2813E-01  0.2301E-02  0.1436E-01  0.8695E-02  0.9923E-02  0.1021E-01  0.3429E-02  0.3179E-02  0.2810E-02
     11.505  0.1189E+00  0.6253E-02  0.1009E+00  0.6151E-03  0.2392E-02  0.7872E-01  0.1458E-01  0.5508E-02  0.4323E-03
     11.625  0.1978E+00  0.1046E-01  0.7559E-01  0.8440E-02  0.3267E-01  0.7702E-01  0.1143E-01  0.2474E-01  0.8964E-03
     11.746  0.2673E+00  0.1193E-01  0.7522E-02  0.1734E-01  0.7525E-01  0.5254E-01  0.1629E-02  0.5597E-01  0.1512E-02
     11.866  0.8492E-01  0.2707E-02  0.1162E-02  0.4470E-02  0.2379E-01  0.1786E-01  0.2744E-03  0.2027E-01  0.5130E-03
     11.986  0.3020E-01  0.1022E-02  0.1012E-01  0.1401E-02  0.2939E-02  0.8745E-02  0.2564E-02  0.5533E-02  0.2289E-03
     12.106  0.1655E+00  0.9901E-02  0.6491E-01  0.1004E-01  0.1062E-01  0.5617E-01  0.2047E-01  0.3169E-01  0.1066E-02
     12.227  0.1561E+00  0.2121E-01  0.7361E-01  0.1788E-01  0.6082E-02  0.6870E-01  0.2831E-01  0.2743E-01  0.1059E-02
     12.347  0.3729E-01  0.8750E-02  0.2188E-01  0.7096E-02  0.3986E-03  0.2068E-01  0.8945E-02  0.4317E-02  0.3793E-03
     12.467  0.2702E-01  0.4392E-03  0.9354E-02  0.8671E-03  0.7672E-03  0.7227E-02  0.2626E-02  0.6249E-03  0.1394E-02
     12.588  0.1151E+00  0.1514E-02  0.3789E-01  0.3616E-02  0.5794E-02  0.2949E-01  0.9427E-02  0.4689E-02  0.5751E-02
     12.708  0.1463E+00  0.1885E-01  0.6429E-01  0.1964E-01  0.2808E-01  0.4966E-01  0.7094E-02  0.2706E-01  0.3581E-02
     12.828  0.1512E+00  0.3157E-01  0.8113E-01  0.2895E-01  0.3699E-01  0.5915E-01  0.5102E-02  0.3467E-01  0.2432E-02
     12.948  0.3086E-01  0.6888E-02  0.1461E-01  0.5228E-02  0.6712E-02  0.1189E-01  0.7959E-03  0.6149E-02  0.5425E-03
     13.069  0.6431E-02  0.1275E-02  0.1083E-02  0.2319E-02  0.2243E-02  0.6401E-03  0.2688E-03  0.1514E-02  0.6221E-03
     13.189  0.7838E-01  0.1565E-01  0.1153E-01  0.3074E-01  0.2878E-01  0.4748E-02  0.3443E-02  0.1850E-01  0.8160E-02
     13.309  0.1460E+00  0.3396E-01  0.2412E-01  0.5803E-01  0.5148E-01  0.6375E-02  0.5407E-02  0.2555E-01  0.1206E-01
     13.429  0.7654E-01  0.2099E-01  0.1466E-01  0.3754E-01  0.2644E-01  0.1296E-02  0.2693E-02  0.8749E-02  0.4934E-02
     13.550  0.6531E-01  0.1243E-01  0.1112E-01  0.4969E-01  0.2152E-01  0.5608E-03  0.4978E-02  0.1484E-01  0.7243E-02