    1    1    1    1
  0.1482975E+02  0.2757716E-09  0.2757716E-09  0.2757716E-09  0.5000000E-15
   1.0000000000000000E-004
  CAR 
 Au, FCC                                 
   11   60    9

  0.6250000E-01  0.6250000E-01  0.6250000E-01  0.3906250E-02
   1       -3.5719
   2        2.0532
   3        2.1707
   4        2.1707
   5        4.0209
   6        4.0209
   7       23.2154
   8       26.6991
   9       27.9259

  0.1875000E+00  0.6250000E-01  0.6250000E-01  0.1171875E-01
   1       -2.7873
   2        1.7758
   3        2.4254
   4        2.4503
   5        3.7472
   6        4.1614
   7       23.7536
   8       24.2770
   9       27.6093

  0.3125000E+00  0.6250000E-01  0.6250000E-01  0.1171875E-01
   1       -1.3944
   2        1.8912
   3        2.4441
   4        2.5169
   5        4.0525
   6        4.8039
   7       19.2222
   8       24.1380
   9       27.6201

  0.4375000E+00  0.6250000E-01  0.6250000E-01  0.1171875E-01
   1       -0.9228
   2        2.0976
   3        2.2349
   4        3.7903
   5        5.0373
   6        5.9968
   7       14.1156
   8       22.8764
   9       26.0920

 -0.4375000E+00  0.6250000E-01  0.6250000E-01  0.1171875E-01
   1       -0.9347
   2        1.9684
   3        2.1596
   4        4.6201
   5        5.5913
   6        6.9985
   7       11.7122
   8       22.4852
   9       26.1350

 -0.3125000E+00  0.6250000E-01  0.6250000E-01  0.1171875E-01
   1       -0.9689
   2        2.1605
   3        2.3635
   4        2.9628
   5        5.1463
   6        5.2014
   7       15.7505
   8       23.2927
   9       26.8689

 -0.1875000E+00  0.6250000E-01  0.6250000E-01  0.1171875E-01
   1       -1.8311
   2        1.6760
   3        2.5053
   4        2.5762
   5        3.9250
   6        4.4240
   7       20.9107
   8       24.5285
   9       27.9525

 -0.6250000E-01  0.6250000E-01  0.6250000E-01  0.1171875E-01
   1       -3.1669
   2        1.8461
   3        2.3503
   4        2.3578
   5        3.7797
   6        4.1379
   7       23.7096
   8       25.4671
   9       27.6941

  0.1875000E+00  0.1875000E+00  0.6250000E-01  0.1171875E-01
   1       -2.4037
   2        1.4525
   3        2.6902
   4        2.7242
   5        3.4315
   6        4.3577
   7       24.2056
   8       24.7582
   9       26.7748

  0.3125000E+00  0.1875000E+00  0.6250000E-01  0.2343750E-01
   1       -1.1526
   2        1.1012
   3        2.4272
   4        3.1716
   5        3.8239
   6        4.9460
   7       21.3136
   8       23.9768
   9       26.1273

  0.4375000E+00  0.1875000E+00  0.6250000E-01  0.2343750E-01
   1       -0.3393
   2        1.7158
   3        1.9734
   4        2.9810
   5        5.1116
   6        6.4765
   7       16.0390
   8       23.1603
   9       24.0057

 -0.4375000E+00  0.1875000E+00  0.6250000E-01  0.2343750E-01
   1       -0.3077
   2        1.5343
   3        2.7213
   4        3.1352
   5        5.4998
   6        9.1606
   7       11.6511
   8       22.4432
   9       23.4267

 -0.3125000E+00  0.1875000E+00  0.6250000E-01  0.2343750E-01
   1       -0.2347
   2        1.6995
   3        2.4875
   4        2.8587
   5        4.8840
   6        7.5058
   7       14.4968
   8       21.9766
   9       24.1739

 -0.1875000E+00  0.1875000E+00  0.6250000E-01  0.2343750E-01
   1       -0.6774
   2        1.3078
   3        2.2132
   4        3.1056
   5        3.7188
   6        5.6661
   7       19.5125
   8       22.6504
   9       25.9947

 -0.6250000E-01  0.1875000E+00  0.6250000E-01  0.2343750E-01
   1       -2.0731
   2        1.4983
   3        2.5674
   4        2.7221
   5        3.5670
   6        4.4726
   7       22.5841
   8       24.4462
   9       27.1006

  0.3125000E+00  0.3125000E+00  0.6250000E-01  0.1171875E-01
   1       -0.6240
   2        0.4898
   3        2.8843
   4        3.8935
   5        4.3576
   6        4.9936
   7       21.7540
   8       23.0244
   9       24.1028

  0.4375000E+00  0.3125000E+00  0.6250000E-01  0.2343750E-01
   1       -0.1722
   2        0.3153
   3        2.8467
   4        4.3709
   5        5.2035
   6        6.6176
   7       18.0914
   8       20.7008
   9       21.6766

 -0.4375000E+00  0.3125000E+00  0.6250000E-01  0.2343750E-01
   1        0.0437
   2        0.8577
   3        2.5509
   4        3.9442
   5        5.6008
   6       10.1245
   7       13.3106
   8       19.0640
   9       21.3382

 -0.3125000E+00  0.3125000E+00  0.6250000E-01  0.2343750E-01
   1        0.5154
   2        1.2991
   3        2.0086
   4        3.6249
   5        4.9546
   6        9.8938
   7       14.5382
   8       17.2987
   9       23.2297

 -0.1875000E+00  0.3125000E+00  0.6250000E-01  0.2343750E-01
   1        0.3702
   2        1.4790
   3        1.7038
   4        3.3268
   5        4.2820
   6        7.5770
   7       16.6008
   8       19.7642
   9       24.6248

 -0.6250000E-01  0.3125000E+00  0.6250000E-01  0.2343750E-01
   1       -0.8530
   2        1.9404
   3        2.2188
   4        2.6490
   5        4.4265
   6        5.4862
   7       17.6149
   8       23.7361
   9       25.8536

  0.4375000E+00  0.4375000E+00  0.6250000E-01  0.1171875E-01
   1       -0.6112
   2       -0.2290
   3        4.8511
   4        5.1280
   5        5.6664
   6        6.9730
   7       17.2386
   8       19.1886
   9       19.5782

 -0.4375000E+00  0.4375000E+00  0.6250000E-01  0.2343750E-01
   1       -0.4988
   2       -0.1233
   3        4.3210
   4        5.0745
   5        5.8930
   6        9.9416
   7       14.4455
   8       17.5596
   9       18.9411

 -0.3125000E+00  0.4375000E+00  0.6250000E-01  0.2343750E-01
   1       -0.0078
   2        0.6982
   3        2.9006
   4        4.2659
   5        5.5420
   6       12.0660
   7       12.7330
   8       16.6006
   9       20.8812

 -0.1875000E+00  0.4375000E+00  0.6250000E-01  0.2343750E-01
   1        0.1690
   2        1.2813
   3        2.5566
   4        3.1916
   5        5.2790
   6       10.1892
   7       12.1029
   8       20.0885
   9       23.2315

 -0.6250000E-01  0.4375000E+00  0.6250000E-01  0.2343750E-01
   1       -0.6956
   2        1.8526
   3        2.3814
   4        3.6450
   5        5.4037
   6        7.3058
   7       12.7201
   8       22.8091
   9       24.8468

 -0.4375000E+00 -0.4375000E+00  0.6250000E-01  0.1171875E-01
   1       -0.7628
   2       -0.3876
   3        5.4051
   4        5.4659
   5        5.9213
   6        8.5960
   7       14.9758
   8       18.1790
   9       18.7288

 -0.3125000E+00 -0.4375000E+00  0.6250000E-01  0.2343750E-01
   1       -0.3445
   2        0.0283
   3        3.6874
   4        4.8982
   5        5.6263
   6        8.2274
   7       16.2390
   8       18.8420
   9       19.7939

 -0.1875000E+00 -0.4375000E+00  0.6250000E-01  0.2343750E-01
   1       -0.0190
   2        1.2148
   3        2.1588
   4        3.4518
   5        5.5199
   6        8.0717
   7       14.5444
   8       21.7200
   9       22.2321

 -0.3125000E+00 -0.3125000E+00  0.6250000E-01  0.1171875E-01
   1       -0.4417
   2        0.0738
   3        3.7745
   4        4.5709
   5        5.3374
   6        5.4430
   7       19.7563
   8       21.0943
   9       21.3272

 -0.1875000E+00 -0.3125000E+00  0.6250000E-01  0.2343750E-01
   1       -0.3644
   2        0.6876
   3        2.3243
   4        3.7365
   5        4.5261
   6        5.5767
   7       19.8227
   8       22.4822
   9       24.0962

 -0.1875000E+00 -0.1875000E+00  0.6250000E-01  0.1171875E-01
   1       -1.4260
   2        0.9716
   3        2.7602
   4        3.2500
   5        3.5888
   6        4.6550
   7       23.2532
   8       25.0673
   9       25.4225

  0.1875000E+00  0.1875000E+00  0.1875000E+00  0.3906250E-02
   1       -2.4524
   2        1.8004
   3        2.4539
   4        2.4539
   5        4.0041
   6        4.0041
   7       22.3904
   8       24.3733
   9       29.2281

  0.3125000E+00  0.1875000E+00  0.1875000E+00  0.1171875E-01
   1       -1.4602
   2        1.4743
   3        2.4767
   4        2.8366
   5        3.4923
   6        4.9559
   7       20.9943
   8       23.7635
   9       27.2234

  0.4375000E+00  0.1875000E+00  0.1875000E+00  0.1171875E-01
   1       -0.1320
   2        1.4672
   3        2.0779
   4        3.0432
   5        3.8113
   6        6.5548
   7       17.9475
   8       21.2266
   9       25.5783

 -0.4375000E+00  0.1875000E+00  0.1875000E+00  0.1171875E-01
   1       -0.0711
   2        1.5419
   3        2.8057
   4        2.8498
   5        4.9852
   6        8.6680
   7       13.2052
   8       20.9022
   9       24.6591

 -0.3125000E+00  0.1875000E+00  0.1875000E+00  0.1171875E-01
   1       -0.2173
   2        1.4726
   3        2.6307
   4        2.9600
   5        5.6526
   6        8.6032
   7       12.7802
   8       22.0406
   9       24.0026

 -0.1875000E+00  0.1875000E+00  0.1875000E+00  0.1171875E-01
   1       -0.3805
   2        1.1043
   3        2.1554
   4        3.2378
   5        5.3404
   6        5.5281
   7       17.8632
   8       23.8764
   9       23.9165

  0.3125000E+00  0.3125000E+00  0.1875000E+00  0.1171875E-01
   1       -1.0484
   2        1.4189
   3        2.3192
   4        2.8361
   5        4.4169
   6        4.9019
   7       19.4403
   8       24.5512
   9       25.9495

  0.4375000E+00  0.3125000E+00  0.1875000E+00  0.2343750E-01
   1        0.0435
   2        1.0770
   3        1.8275
   4        3.5734
   5        4.3413
   6        6.5624
   7       18.0371
   8       21.2062
   9       24.2109

 -0.4375000E+00  0.3125000E+00  0.1875000E+00  0.2343750E-01
   1        0.7673
   2        1.1553
   3        1.5247
   4        3.7651
   5        4.9003
   6        8.8947
   7       15.4581
   8       18.4087
   9       22.5058

 -0.3125000E+00  0.3125000E+00  0.1875000E+00  0.2343750E-01
   1        0.4811
   2        1.0214
   3        2.1346
   4        3.6419
   5        5.4394
   6       11.1856
   7       12.1941
   8       19.2422
   9       20.9814

 -0.1875000E+00  0.3125000E+00  0.1875000E+00  0.2343750E-01
   1        0.2885
   2        0.7897
   3        1.9435
   4        4.1274
   5        4.9990
   6        7.8129
   7       16.5891
   8       19.6738
   9       21.9813

  0.4375000E+00  0.4375000E+00  0.1875000E+00  0.1171875E-01
   1       -0.1576
   2        0.7121
   3        2.5611
   4        3.7496
   5        5.6469
   6        7.1052
   7       16.2265
   8       21.6277
   9       22.1935

 -0.4375000E+00  0.4375000E+00  0.1875000E+00  0.2343750E-01
   1        0.1309
   2        0.5126
   3        2.5447
   4        4.4741
   5        5.5262
   6        9.5391
   7       15.2486
   8       18.1546
   9       19.8688

 -0.3125000E+00  0.4375000E+00  0.1875000E+00  0.2343750E-01
   1        0.4425
   2        1.0548
   3        1.9652
   4        3.9328
   5        5.8789
   6       12.5414
   7       13.9380
   8       15.8577
   9       18.6568

 -0.1875000E+00  0.4375000E+00  0.1875000E+00  0.2343750E-01
   1        0.6646
   2        1.0452
   3        1.6946
   4        3.9730
   5        5.4818
   6       10.6360
   7       14.5320
   8       17.2115
   9       20.1289

 -0.4375000E+00 -0.4375000E+00  0.1875000E+00  0.1171875E-01
   1       -0.3546
   2        0.2019
   3        3.8060
   4        4.7261
   5        5.6883
   6       10.9374
   7       13.5302
   8       16.9223
   9       20.3090

 -0.3125000E+00 -0.4375000E+00  0.1875000E+00  0.2343750E-01
   1       -0.0321
   2        0.3784
   3        3.0695
   4        4.4793
   5        5.8821
   6       11.4884
   7       13.9153
   8       16.7923
   9       18.8109

 -0.3125000E+00 -0.3125000E+00  0.1875000E+00  0.1171875E-01
   1       -0.2439
   2        0.3756
   3        3.2840
   4        4.2968
   5        5.7537
   6        9.0262
   7       14.7299
   8       18.9573
   9       20.9551

  0.3125000E+00  0.3125000E+00  0.3125000E+00  0.3906250E-02
   1       -1.2366
   2        2.3440
   3        2.3440
   4        2.5790
   5        4.6634
   6        4.6634
   7       17.4207
   8       23.6395
   9       28.9698

  0.4375000E+00  0.3125000E+00  0.3125000E+00  0.1171875E-01
   1       -0.5792
   2        1.9899
   3        2.5370
   4        2.5711
   5        4.4404
   6        6.3757
   7       15.9729
   8       22.8977
   9       25.0376

 -0.4375000E+00  0.3125000E+00  0.3125000E+00  0.1171875E-01
   1        0.4818
   2        1.4959
   3        1.9564
   4        3.3072
   5        4.5016
   6        8.6269
   7       15.4857
   8       18.3836
   9       25.3368

 -0.3125000E+00  0.3125000E+00  0.3125000E+00  0.1171875E-01
   1        0.1681
   2        1.1193
   3        2.5102
   4        3.9076
   5        5.1795
   6       11.0046
   7       13.5038
   8       16.7084
   9       22.9644

  0.4375000E+00  0.4375000E+00  0.3125000E+00  0.1171875E-01
   1       -0.6072
   2        1.8479
   3        2.5766
   4        2.8233
   5        5.5581
   6        6.5975
   7       14.1909
   8       23.1689
   9       25.1922

 -0.4375000E+00  0.4375000E+00  0.3125000E+00  0.2343750E-01
   1        0.1561
   2        1.3007
   3        2.3140
   4        3.2482
   5        5.2904
   6        9.1120
   7       13.1982
   8       20.9990
   9       22.4526

 -0.3125000E+00  0.4375000E+00  0.3125000E+00  0.2343750E-01
   1        0.5118
   2        1.0839
   3        2.0016
   4        3.8652
   5        5.4830
   6       11.4931
   7       13.7090
   8       16.6000
   9       20.5856

 -0.4375000E+00 -0.4375000E+00  0.3125000E+00  0.1171875E-01
   1        0.0709
   2        1.2008
   3        2.5308
   4        3.4544
   5        5.4792
   6       10.9546
   7       11.6606
   8       19.4717
   9       23.2858

  0.4375000E+00  0.4375000E+00  0.4375000E+00  0.3906250E-02
   1       -1.0473
   2        2.0928
   3        2.0928
   4        5.2790
   5        5.4554
   6        5.4554
   7       12.6507
   8       22.4704
   9       26.8989

 -0.4375000E+00  0.4375000E+00  0.4375000E+00  0.1171875E-01
   1       -0.5953
   2        1.7533
   3        2.4245
   4        3.7313
   5        5.4122
   6        8.3121
   7       11.7148
   8       22.5697
   9       24.5960
