       N       E                     dE             d eps       ncg     rms          rms(c)
DAV:   1     0.416762994932E+02    0.41676E+02   -0.49426E+03  1352   0.843E+02

DAV:   2    -0.254563346013E+01   -0.44222E+02   -0.40884E+02  1096   0.204E+02

DAV:   3    -0.302141691469E+01   -0.47578E+00   -0.47563E+00  1266   0.262E+01

DAV:   4    -0.302288450722E+01   -0.14676E-02   -0.14676E-02  1210   0.133E+00

DAV:   5    -0.302289598356E+01   -0.11476E-04   -0.11476E-04  1298   0.112E-01    0.291E+00
RMM:   6    -0.281382219459E+01    0.20907E+00   -0.28943E-01  1083   0.758E+00    0.947E-01
RMM:   7    -0.278265248530E+01    0.31170E-01   -0.39871E-02  1136   0.241E+00    0.247E-01
RMM:   8    -0.277776098052E+01    0.48915E-02   -0.14569E-03  1158   0.681E-01    0.101E-02
RMM:   9    -0.277777027113E+01   -0.92906E-05   -0.19788E-05   681   0.624E-02

   1 F= -.27777703E+01 E0= -.27773039E+01  d E =-.932702E-03

