PROCAR lm decomposed
# of k-points:   60         # of bands:   9         # of ions:   1

 k-point    1 :    0.06250000 0.06250000 0.06250000     weight = 0.00390625

band   1 # energy   -3.57188251 # occ.  2.00000000

ion      s     py     pz     px    dxy    dyz    dz2    dxz    dx2    tot
  1  0.693  0.003  0.003  0.003  0.000  0.000  0.000  0.000  0.000  0.701

band   2 # energy    2.05320474 # occ.  2.00000000

ion      s     py     pz     px    dxy    dyz    dz2    dxz    dx2    tot
  1  0.000  0.001  0.001  0.001  0.314  0.314  0.000  0.314  0.000  0.945

band   3 # energy    2.17066573 # occ.  2.00000000

ion      s     py     pz     px    dxy    dyz    dz2    dxz    dx2    tot
  1  0.000  0.000  0.000  0.000  0.481  0.000  0.001  0.466  0.000  0.948

band   4 # energy    2.17066607 # occ.  2.00000000

ion      s     py     pz     px    dxy    dyz    dz2    dxz    dx2    tot
  1  0.000  0.000  0.000  0.000  0.151  0.631  0.000  0.165  0.001  0.948

band   5 # energy    4.02089346 # occ.  2.00000000

ion      s     py     pz     px    dxy    dyz    dz2    dxz    dx2    tot
  1  0.000  0.000  0.000  0.000  0.000  0.001  0.257  0.000  0.713  0.971

band   6 # energy    4.02089363 # occ.  2.00000000

ion      s     py     pz     px    dxy    dyz    dz2    dxz    dx2    tot
  1  0.000  0.000  0.000  0.000  0.001  0.000  0.713  0.001  0.257  0.971

band   7 # energy   23.21535737 # occ.  0.00000000

ion      s     py     pz     px    dxy    dyz    dz2    dxz    dx2    tot
  1  0.000  0.000  0.000  0.000  0.007  0.007  0.000  0.007  0.000  0.021

band   8 # energy   26.69911423 # occ.  0.00000000

ion      s     py     pz     px    dxy    dyz    dz2    dxz    dx2    tot
  1  0.018  0.051  0.051  0.051  0.007  0.007  0.000  0.007  0.000  0.193

band   9 # energy   27.92591164 # occ.  0.00000000

ion      s     py     pz     px    dxy    dyz    dz2    dxz    dx2    tot
  1  0.000  0.027  0.111  0.032  0.005  0.002  0.010  0.001  0.000  0.189


 k-point    2 :    0.18750000 0.06250000 0.06250000     weight = 0.01171875

band   1 # energy   -2.78725860 # occ.  2.00000000

ion      s     py     pz     px    dxy    dyz    dz2    dxz    dx2    tot
  1  0.649  0.021  0.021  0.002  0.001  0.008  0.000  0.001  0.001  0.703

band   2 # energy    1.77582008 # occ.  2.00000000

ion      s     py     pz     px    dxy    dyz    dz2    dxz    dx2    tot
  1  0.001  0.001  0.001  0.009  0.444  0.027  0.000  0.444  0.000  0.928

band   3 # energy    2.42539730 # occ.  2.00000000

ion      s     py     pz     px    dxy    dyz    dz2    dxz    dx2    tot
  1  0.000  0.000  0.000  0.000  0.466  0.000  0.012  0.466  0.004  0.948

band   4 # energy    2.45028123 # occ.  2.00000000

ion      s     py     pz     px    dxy    dyz    dz2    dxz    dx2    tot
  1  0.001  0.004  0.004  0.000  0.014  0.835  0.018  0.014  0.055  0.944

band   5 # energy    3.74718204 # occ.  2.00000000

ion      s     py     pz     px    dxy    dyz    dz2    dxz    dx2    tot
  1  0.000  0.000  0.000  0.000  0.008  0.000  0.707  0.008  0.236  0.959

band   6 # energy    4.16144407 # occ.  2.00000000

ion      s     py     pz     px    dxy    dyz    dz2    dxz    dx2    tot
  1  0.002  0.001  0.001  0.000  0.001  0.069  0.223  0.001  0.670  0.968

band   7 # energy   23.75364568 # occ.  0.00000000

ion      s     py     pz     px    dxy    dyz    dz2    dxz    dx2    tot
  1  0.033  0.043  0.043  0.040  0.062  0.047  0.001  0.062  0.004  0.336

band   8 # energy   24.27701128 # occ.  0.00000000

ion      s     py     pz     px    dxy    dyz    dz2    dxz    dx2    tot
  1  0.025  0.028  0.028  0.000  0.016  0.012  0.002  0.016  0.006  0.133

band   9 # energy   27.60932750 # occ.  0.00000000

ion      s     py     pz     px    dxy    dyz    dz2    dxz    dx2    tot
  1  0.001  0.008  0.009  0.235  0.037  0.016  0.003  0.037  0.010  0.355


 k-point    3 :    0.31250000 0.06250000 0.06250000     weight = 0.01171875

band   1 # energy   -1.39437956 # occ.  2.00000000

ion      s     py     pz     px    dxy    dyz    dz2    dxz    dx2    tot
  1  0.481  0.031  0.031  0.006  0.057  0.081  0.000  0.057  0.001  0.746

band   2 # energy    1.89119123 # occ.  2.00000000

ion      s     py     pz     px    dxy    dyz    dz2    dxz    dx2    tot
  1  0.056  0.025  0.025  0.039  0.357  0.009  0.000  0.357  0.001  0.869

band   3 # energy    2.44413282 # occ.  2.00000000

ion      s     py     pz     px    dxy    dyz    dz2    dxz    dx2    tot
  1  0.006  0.009  0.009  0.000  0.011  0.500  0.096  0.011  0.287  0.929

band   4 # energy    2.51689643 # occ.  2.00000000

ion      s     py     pz     px    dxy    dyz    dz2    dxz    dx2    tot
  1  0.000  0.000  0.000  0.000  0.288  0.000  0.275  0.288  0.092  0.943

band   5 # energy    4.05248598 # occ.  2.00000000

ion      s     py     pz     px    dxy    dyz    dz2    dxz    dx2    tot
  1  0.000  0.001  0.001  0.000  0.187  0.000  0.434  0.187  0.145  0.956

band   6 # energy    4.80387285 # occ.  2.00000000

ion      s     py     pz     px    dxy    dyz    dz2    dxz    dx2    tot
  1  0.012  0.006  0.006  0.000  0.015  0.338  0.142  0.015  0.427  0.963

band   7 # energy   19.22218667 # occ.  0.00000000

ion      s     py     pz     px    dxy    dyz    dz2    dxz    dx2    tot
  1  0.151  0.089  0.089  0.091  0.069  0.081  0.001  0.069  0.004  0.645

band   8 # energy   24.13804074 # occ.  0.00000000

ion      s     py     pz     px    dxy    dyz    dz2    dxz    dx2    tot
  1  0.000  0.002  0.002  0.042  0.073  0.003  0.003  0.073  0.008  0.205

band   9 # energy   27.62014927 # occ.  0.00000000

ion      s     py     pz     px    dxy    dyz    dz2    dxz    dx2    tot
  1  0.013  0.092  0.092  0.226  0.043  0.097  0.002  0.043  0.007  0.615


 k-point    4 :    0.43750000 0.06250000 0.06250000     weight = 0.01171875

band   1 # energy   -0.92278535 # occ.  2.00000000

ion      s     py     pz     px    dxy    dyz    dz2    dxz    dx2    tot
  1  0.249  0.008  0.008  0.000  0.186  0.195  0.000  0.186  0.000  0.832

band   2 # energy    2.09763009 # occ.  2.00000000

ion      s     py     pz     px    dxy    dyz    dz2    dxz    dx2    tot
  1  0.000  0.001  0.001  0.001  0.065  0.286  0.129  0.065  0.386  0.933

band   3 # energy    2.23487713 # occ.  2.00000000

ion      s     py     pz     px    dxy    dyz    dz2    dxz    dx2    tot
  1  0.000  0.000  0.000  0.000  0.195  0.000  0.410  0.195  0.137  0.937

band   4 # energy    3.79025829 # occ.  2.00000000

ion      s     py     pz     px    dxy    dyz    dz2    dxz    dx2    tot
  1  0.088  0.089  0.089  0.091  0.147  0.014  0.028  0.147  0.084  0.776

band   5 # energy    5.03727670 # occ.  2.00000000

ion      s     py     pz     px    dxy    dyz    dz2    dxz    dx2    tot
  1  0.000  0.001  0.001  0.000  0.286  0.000  0.297  0.286  0.099  0.970

band   6 # energy    5.99680529 # occ.  2.00000000

ion      s     py     pz     px    dxy    dyz    dz2    dxz    dx2    tot
  1  0.053  0.039  0.039  0.021  0.011  0.421  0.080  0.011  0.241  0.916

band   7 # energy   14.11557433 # occ.  0.00000000

ion      s     py     pz     px    dxy    dyz    dz2    dxz    dx2    tot
  1  0.316  0.061  0.061  0.077  0.102  0.085  0.001  0.102  0.003  0.808

band   8 # energy   22.87636446 # occ.  0.00000000

ion      s     py     pz     px    dxy    dyz    dz2    dxz    dx2    tot
  1  0.000  0.005  0.005  0.024  0.019  0.000  0.004  0.019  0.011  0.086

band   9 # energy   26.09198185 # occ.  0.00000000

ion      s     py     pz     px    dxy    dyz    dz2    dxz    dx2    tot
  1  0.013  0.085  0.087  0.279  0.038  0.011  0.002  0.037  0.006  0.558


 k-point    5 :   -0.43750000 0.06250000 0.06250000     weight = 0.01171875

band   1 # energy   -0.93468260 # occ.  2.00000000

ion      s     py     pz     px    dxy    dyz    dz2    dxz    dx2    tot
  1  0.205  0.000  0.000  0.005  0.205  0.227  0.000  0.205  0.000  0.848

band   2 # energy    1.96843834 # occ.  2.00000000

ion      s     py     pz     px    dxy    dyz    dz2    dxz    dx2    tot
  1  0.000  0.001  0.001  0.000  0.067  0.224  0.142  0.067  0.427  0.929

band   3 # energy    2.15955398 # occ.  2.00000000

ion      s     py     pz     px    dxy    dyz    dz2    dxz    dx2    tot
  1  0.000  0.001  0.001  0.000  0.189  0.000  0.417  0.189  0.139  0.935

band   4 # energy    4.62005506 # occ.  2.00000000

ion      s     py     pz     px    dxy    dyz    dz2    dxz    dx2    tot
  1  0.004  0.070  0.070  0.065  0.053  0.315  0.054  0.053  0.161  0.844

band   5 # energy    5.59130563 # occ.  2.00000000

ion      s     py     pz     px    dxy    dyz    dz2    dxz    dx2    tot
  1  0.000  0.000  0.000  0.000  0.295  0.000  0.294  0.295  0.098  0.983

band   6 # energy    6.99853421 # occ.  2.00000000

ion      s     py     pz     px    dxy    dyz    dz2    dxz    dx2    tot
  1  0.011  0.121  0.121  0.140  0.058  0.088  0.040  0.058  0.121  0.758

band   7 # energy   11.71220704 # occ.  0.00000000

ion      s     py     pz     px    dxy    dyz    dz2    dxz    dx2    tot
  1  0.485  0.009  0.009  0.002  0.127  0.139  0.000  0.127  0.000  0.900

band   8 # energy   22.48524416 # occ.  0.00000000

ion      s     py     pz     px    dxy    dyz    dz2    dxz    dx2    tot
  1  0.000  0.005  0.006  0.015  0.001  0.010  0.004  0.001  0.012  0.054

band   9 # energy   26.13496272 # occ.  0.00000000

ion      s     py     pz     px    dxy    dyz    dz2    dxz    dx2    tot
  1  0.010  0.172  0.039  0.239  0.013  0.011  0.014  0.006  0.011  0.514


 k-point    6 :   -0.31250000 0.06250000 0.06250000     weight = 0.01171875

band   1 # energy   -0.96887223 # occ.  2.00000000

ion      s     py     pz     px    dxy    dyz    dz2    dxz    dx2    tot
  1  0.301  0.004  0.004  0.023  0.152  0.172  0.001  0.152  0.002  0.812

band   2 # energy    2.16049968 # occ.  2.00000000

ion      s     py     pz     px    dxy    dyz    dz2    dxz    dx2    tot
  1  0.001  0.000  0.000  0.000  0.087  0.238  0.130  0.087  0.390  0.934

band   3 # energy    2.36354070 # occ.  2.00000000

ion      s     py     pz     px    dxy    dyz    dz2    dxz    dx2    tot
  1  0.000  0.002  0.002  0.000  0.232  0.000  0.354  0.232  0.118  0.939

band   4 # energy    2.96276760 # occ.  2.00000000

ion      s     py     pz     px    dxy    dyz    dz2    dxz    dx2    tot
  1  0.110  0.072  0.072  0.069  0.019  0.354  0.020  0.019  0.059  0.793

band   5 # energy    5.14629977 # occ.  2.00000000

ion      s     py     pz     px    dxy    dyz    dz2    dxz    dx2    tot
  1  0.042  0.013  0.013  0.036  0.177  0.130  0.084  0.177  0.253  0.927

band   6 # energy    5.20144044 # occ.  2.00000000

ion      s     py     pz     px    dxy    dyz    dz2    dxz    dx2    tot
  1  0.000  0.001  0.001  0.000  0.246  0.000  0.362  0.246  0.121  0.975

band   7 # energy   15.75054846 # occ.  0.00000000

ion      s     py     pz     px    dxy    dyz    dz2    dxz    dx2    tot
  1  0.251  0.088  0.088  0.072  0.084  0.092  0.001  0.084  0.002  0.764

band   8 # energy   23.29271525 # occ.  0.00000000

ion      s     py     pz     px    dxy    dyz    dz2    dxz    dx2    tot
  1  0.000  0.010  0.010  0.011  0.005  0.041  0.004  0.005  0.012  0.098

band   9 # energy   26.86889736 # occ.  0.00000000

ion      s     py     pz     px    dxy    dyz    dz2    dxz    dx2    tot
  1  0.000  0.231  0.233  0.000  0.063  0.000  0.011  0.063  0.004  0.606


 k-point    7 :   -0.18750000 0.06250000 0.06250000     weight = 0.01171875

band   1 # energy   -1.83114221 # occ.  2.00000000

ion      s     py     pz     px    dxy    dyz    dz2    dxz    dx2    tot
  1  0.559  0.013  0.013  0.045  0.032  0.023  0.001  0.032  0.003  0.721

band   2 # energy    1.67599698 # occ.  2.00000000

ion      s     py     pz     px    dxy    dyz    dz2    dxz    dx2    tot
  1  0.025  0.017  0.017  0.012  0.097  0.631  0.000  0.097  0.000  0.897

band   3 # energy    2.50529518 # occ.  2.00000000

ion      s     py     pz     px    dxy    dyz    dz2    dxz    dx2    tot
  1  0.001  0.002  0.002  0.003  0.221  0.180  0.077  0.221  0.232  0.939

band   4 # energy    2.57615584 # occ.  2.00000000

ion      s     py     pz     px    dxy    dyz    dz2    dxz    dx2    tot
  1  0.000  0.003  0.003  0.000  0.360  0.000  0.164  0.360  0.055  0.945

band   5 # energy    3.92502857 # occ.  2.00000000

ion      s     py     pz     px    dxy    dyz    dz2    dxz    dx2    tot
  1  0.009  0.001  0.001  0.007  0.107  0.086  0.158  0.107  0.475  0.951

band   6 # energy    4.42402351 # occ.  2.00000000

ion      s     py     pz     px    dxy    dyz    dz2    dxz    dx2    tot
  1  0.000  0.001  0.001  0.000  0.111  0.000  0.557  0.111  0.186  0.967

band   7 # energy   20.91065959 # occ.  0.00000000

ion      s     py     pz     px    dxy    dyz    dz2    dxz    dx2    tot
  1  0.109  0.088  0.088  0.075  0.070  0.058  0.001  0.070  0.004  0.563

band   8 # energy   24.52849628 # occ.  0.00000000

ion      s     py     pz     px    dxy    dyz    dz2    dxz    dx2    tot
  1  0.000  0.008  0.008  0.001  0.023  0.101  0.002  0.023  0.006  0.172

band   9 # energy   27.95247841 # occ.  0.00000000

ion      s     py     pz     px    dxy    dyz    dz2    dxz    dx2    tot
  1  0.000  0.183  0.186  0.000  0.105  0.000  0.025  0.106  0.008  0.612


 k-point    8 :   -0.06250000 0.06250000 0.06250000     weight = 0.01171875

band   1 # energy   -3.16689561 # occ.  2.00000000

ion      s     py     pz     px    dxy    dyz    dz2    dxz    dx2    tot
  1  0.672  0.002  0.002  0.022  0.001  0.000  0.000  0.001  0.001  0.702

band   2 # energy    1.84612836 # occ.  2.00000000

ion      s     py     pz     px    dxy    dyz    dz2    dxz    dx2    tot
  1  0.000  0.001  0.001  0.000  0.050  0.834  0.000  0.050  0.000  0.937

band   3 # energy    2.35026172 # occ.  2.00000000

ion      s     py     pz     px    dxy    dyz    dz2    dxz    dx2    tot
  1  0.000  0.001  0.001  0.001  0.416  0.103  0.002  0.416  0.005  0.947

band   4 # energy    2.35779408 # occ.  2.00000000

ion      s     py     pz     px    dxy    dyz    dz2    dxz    dx2    tot
  1  0.000  0.002  0.002  0.000  0.467  0.000  0.007  0.467  0.002  0.947

band   5 # energy    3.77972582 # occ.  2.00000000

ion      s     py     pz     px    dxy    dyz    dz2    dxz    dx2    tot
  1  0.001  0.000  0.000  0.000  0.003  0.001  0.238  0.003  0.715  0.962

band   6 # energy    4.13785634 # occ.  2.00000000

ion      s     py     pz     px    dxy    dyz    dz2    dxz    dx2    tot
  1  0.000  0.000  0.000  0.000  0.005  0.000  0.721  0.005  0.240  0.972

band   7 # energy   23.70960028 # occ.  0.00000000

ion      s     py     pz     px    dxy    dyz    dz2    dxz    dx2    tot
  1  0.000  0.002  0.002  0.001  0.009  0.062  0.000  0.009  0.000  0.085

band   8 # energy   25.46711490 # occ.  0.00000000

ion      s     py     pz     px    dxy    dyz    dz2    dxz    dx2    tot
  1  0.037  0.037  0.037  0.065  0.018  0.002  0.004  0.018  0.013  0.231

band   9 # energy   27.69407415 # occ.  0.00000000

ion      s     py     pz     px    dxy    dyz    dz2    dxz    dx2    tot
  1  0.000  0.114  0.111  0.001  0.038  0.000  0.006  0.037  0.003  0.310


 k-point    9 :    0.18750000 0.18750000 0.06250000     weight = 0.01171875

band   1 # energy   -2.40367046 # occ.  2.00000000

ion      s     py     pz     px    dxy    dyz    dz2    dxz    dx2    tot
  1  0.624  0.002  0.058  0.002  0.000  0.002  0.012  0.002  0.000  0.703

band   2 # energy    1.45249853 # occ.  2.00000000

ion      s     py     pz     px    dxy    dyz    dz2    dxz    dx2    tot
  1  0.000  0.001  0.000  0.001  0.891  0.015  0.000  0.015  0.000  0.925

band   3 # energy    2.69022723 # occ.  2.00000000

ion      s     py     pz     px    dxy    dyz    dz2    dxz    dx2    tot
  1  0.000  0.004  0.000  0.004  0.031  0.404  0.096  0.404  0.000  0.944

band   4 # energy    2.72424179 # occ.  2.00000000

ion      s     py     pz     px    dxy    dyz    dz2    dxz    dx2    tot
  1  0.000  0.005  0.000  0.005  0.000  0.455  0.000  0.455  0.028  0.947

band   5 # energy    3.43153657 # occ.  2.00000000

ion      s     py     pz     px    dxy    dyz    dz2    dxz    dx2    tot
  1  0.010  0.000  0.004  0.000  0.003  0.045  0.836  0.045  0.000  0.945

band   6 # energy    4.35772304 # occ.  2.00000000

ion      s     py     pz     px    dxy    dyz    dz2    dxz    dx2    tot
  1  0.000  0.000  0.000  0.000  0.000  0.014  0.000  0.014  0.944  0.973

band   7 # energy   24.20563722 # occ.  0.00000000

ion      s     py     pz     px    dxy    dyz    dz2    dxz    dx2    tot
  1  0.038  0.054  0.034  0.054  0.072  0.043  0.028  0.043  0.000  0.366

band   8 # energy   24.75819125 # occ.  0.00000000

ion      s     py     pz     px    dxy    dyz    dz2    dxz    dx2    tot
  1  0.017  0.004  0.014  0.004  0.098  0.000  0.025  0.000  0.000  0.161

band   9 # energy   26.77478125 # occ.  0.00000000

ion      s     py     pz     px    dxy    dyz    dz2    dxz    dx2    tot
  1  0.000  0.170  0.000  0.157  0.000  0.093  0.000  0.087  0.006  0.513


 k-point   10 :    0.31250000 0.18750000 0.06250000     weight = 0.02343750

band   1 # energy   -1.15261724 # occ.  2.00000000

ion      s     py     pz     px    dxy    dyz    dz2    dxz    dx2    tot
  1  0.506  0.014  0.089  0.001  0.008  0.041  0.054  0.007  0.000  0.720

band   2 # energy    1.10121196 # occ.  2.00000000

ion      s     py     pz     px    dxy    dyz    dz2    dxz    dx2    tot
  1  0.005  0.003  0.002  0.013  0.818  0.002  0.003  0.060  0.000  0.907

band   3 # energy    2.42717920 # occ.  2.00000000

ion      s     py     pz     px    dxy    dyz    dz2    dxz    dx2    tot
  1  0.005  0.007  0.001  0.000  0.013  0.338  0.510  0.017  0.035  0.926

band   4 # energy    3.17157986 # occ.  2.00000000

ion      s     py     pz     px    dxy    dyz    dz2    dxz    dx2    tot
  1  0.002  0.003  0.002  0.008  0.043  0.111  0.036  0.603  0.139  0.946

band   5 # energy    3.82393359 # occ.  2.00000000

ion      s     py     pz     px    dxy    dyz    dz2    dxz    dx2    tot
  1  0.027  0.005  0.019  0.004  0.028  0.154  0.278  0.232  0.191  0.936

band   6 # energy    4.94600981 # occ.  2.00000000

ion      s     py     pz     px    dxy    dyz    dz2    dxz    dx2    tot
  1  0.014  0.005  0.006  0.000  0.000  0.288  0.045  0.006  0.602  0.967

band   7 # energy   21.31363002 # occ.  0.00000000

ion      s     py     pz     px    dxy    dyz    dz2    dxz    dx2    tot
  1  0.114  0.149  0.066  0.062  0.031  0.093  0.023  0.037  0.007  0.581

band   8 # energy   23.97675438 # occ.  0.00000000

ion      s     py     pz     px    dxy    dyz    dz2    dxz    dx2    tot
  1  0.005  0.027  0.002  0.252  0.145  0.015  0.015  0.144  0.006  0.611

band   9 # energy   26.12727425 # occ.  0.00000000

ion      s     py     pz     px    dxy    dyz    dz2    dxz    dx2    tot
  1  0.014  0.090  0.064  0.043  0.017  0.036  0.125  0.014  0.001  0.402


 k-point   11 :    0.43750000 0.18750000 0.06250000     weight = 0.02343750

band   1 # energy   -0.33932330 # occ.  2.00000000

ion      s     py     pz     px    dxy    dyz    dz2    dxz    dx2    tot
  1  0.239  0.005  0.048  0.001  0.247  0.137  0.051  0.092  0.000  0.818

band   2 # energy    1.71576563 # occ.  2.00000000

ion      s     py     pz     px    dxy    dyz    dz2    dxz    dx2    tot
  1  0.019  0.036  0.014  0.027  0.113  0.048  0.539  0.045  0.017  0.858

band   3 # energy    1.97336807 # occ.  2.00000000

ion      s     py     pz     px    dxy    dyz    dz2    dxz    dx2    tot
  1  0.061  0.005  0.033  0.017  0.432  0.226  0.084  0.001  0.032  0.892

band   4 # energy    2.98103077 # occ.  2.00000000

ion      s     py     pz     px    dxy    dyz    dz2    dxz    dx2    tot
  1  0.005  0.006  0.007  0.002  0.044  0.079  0.037  0.313  0.443  0.936

band   5 # energy    5.11161534 # occ.  2.00000000

ion      s     py     pz     px    dxy    dyz    dz2    dxz    dx2    tot
  1  0.010  0.002  0.015  0.008  0.035  0.032  0.068  0.450  0.339  0.958

band   6 # energy    6.47650723 # occ.  2.00000000

ion      s     py     pz     px    dxy    dyz    dz2    dxz    dx2    tot
  1  0.100  0.026  0.066  0.012  0.012  0.418  0.138  0.016  0.123  0.912

band   7 # energy   16.03901392 # occ.  0.00000000

ion      s     py     pz     px    dxy    dyz    dz2    dxz    dx2    tot
  1  0.240  0.107  0.070  0.110  0.081  0.056  0.009  0.065  0.007  0.745

band   8 # energy   23.16028308 # occ.  0.00000000

ion      s     py     pz     px    dxy    dyz    dz2    dxz    dx2    tot
  1  0.005  0.057  0.000  0.202  0.087  0.023  0.051  0.056  0.031  0.512

band   9 # energy   24.00565860 # occ.  0.00000000

ion      s     py     pz     px    dxy    dyz    dz2    dxz    dx2    tot
  1  0.035  0.027  0.146  0.106  0.003  0.000  0.120  0.035  0.007  0.479


 k-point   12 :   -0.43750000 0.18750000 0.06250000     weight = 0.02343750

band   1 # energy   -0.30769622 # occ.  2.00000000

ion      s     py     pz     px    dxy    dyz    dz2    dxz    dx2    tot
  1  0.158  0.000  0.019  0.010  0.312  0.204  0.010  0.140  0.001  0.854

band   2 # energy    1.53434147 # occ.  2.00000000

ion      s     py     pz     px    dxy    dyz    dz2    dxz    dx2    tot
  1  0.000  0.014  0.000  0.003  0.087  0.136  0.572  0.015  0.067  0.896

band   3 # energy    2.72133449 # occ.  2.00000000

ion      s     py     pz     px    dxy    dyz    dz2    dxz    dx2    tot
  1  0.000  0.000  0.000  0.010  0.001  0.091  0.084  0.239  0.510  0.934

band   4 # energy    3.13519073 # occ.  2.00000000

ion      s     py     pz     px    dxy    dyz    dz2    dxz    dx2    tot
  1  0.006  0.054  0.066  0.050  0.351  0.165  0.090  0.033  0.036  0.850

band   5 # energy    5.49979291 # occ.  2.00000000

ion      s     py     pz     px    dxy    dyz    dz2    dxz    dx2    tot
  1  0.001  0.000  0.000  0.000  0.037  0.173  0.031  0.430  0.307  0.979

band   6 # energy    9.16063229 # occ.  0.00000000

ion      s     py     pz     px    dxy    dyz    dz2    dxz    dx2    tot
  1  0.027  0.104  0.165  0.113  0.051  0.130  0.147  0.022  0.019  0.778

band   7 # energy   11.65105829 # occ.  0.00000000

ion      s     py     pz     px    dxy    dyz    dz2    dxz    dx2    tot
  1  0.482  0.016  0.001  0.033  0.140  0.085  0.001  0.105  0.004  0.866

band   8 # energy   22.44319062 # occ.  0.00000000

ion      s     py     pz     px    dxy    dyz    dz2    dxz    dx2    tot
  1  0.018  0.024  0.172  0.003  0.005  0.049  0.149  0.016  0.002  0.439

band   9 # energy   23.42670232 # occ.  0.00000000

ion      s     py     pz     px    dxy    dyz    dz2    dxz    dx2    tot
  1  0.037  0.017  0.080  0.280  0.067  0.001  0.000  0.038  0.074  0.594


 k-point   13 :   -0.31250000 0.18750000 0.06250000     weight = 0.02343750

band   1 # energy   -0.23474398 # occ.  2.00000000

ion      s     py     pz     px    dxy    dyz    dz2    dxz    dx2    tot
  1  0.200  0.009  0.007  0.029  0.242  0.216  0.000  0.128  0.006  0.837

band   2 # energy    1.69950070 # occ.  2.00000000

ion      s     py     pz     px    dxy    dyz    dz2    dxz    dx2    tot
  1  0.000  0.009  0.001  0.001  0.218  0.103  0.477  0.005  0.093  0.907

band   3 # energy    2.48751868 # occ.  2.00000000

ion      s     py     pz     px    dxy    dyz    dz2    dxz    dx2    tot
  1  0.040  0.045  0.056  0.035  0.084  0.193  0.033  0.153  0.212  0.849

band   4 # energy    2.85873893 # occ.  2.00000000

ion      s     py     pz     px    dxy    dyz    dz2    dxz    dx2    tot
  1  0.014  0.011  0.004  0.029  0.000  0.214  0.162  0.141  0.338  0.913

band   5 # energy    4.88397909 # occ.  2.00000000

ion      s     py     pz     px    dxy    dyz    dz2    dxz    dx2    tot
  1  0.001  0.001  0.003  0.008  0.020  0.142  0.045  0.467  0.274  0.961

band   6 # energy    7.50584684 # occ.  1.99934552

ion      s     py     pz     px    dxy    dyz    dz2    dxz    dx2    tot
  1  0.139  0.045  0.021  0.073  0.387  0.004  0.209  0.003  0.008  0.889

band   7 # energy   14.49676901 # occ.  0.00000000

ion      s     py     pz     px    dxy    dyz    dz2    dxz    dx2    tot
  1  0.284  0.076  0.109  0.061  0.042  0.096  0.033  0.080  0.000  0.781

band   8 # energy   21.97658167 # occ.  0.00000000

ion      s     py     pz     px    dxy    dyz    dz2    dxz    dx2    tot
  1  0.026  0.042  0.267  0.019  0.009  0.101  0.074  0.078  0.000  0.617

band   9 # energy   24.17387772 # occ.  0.00000000

ion      s     py     pz     px    dxy    dyz    dz2    dxz    dx2    tot
  1  0.026  0.007  0.043  0.140  0.022  0.000  0.022  0.008  0.058  0.326


 k-point   14 :   -0.18750000 0.18750000 0.06250000     weight = 0.02343750

band   1 # energy   -0.67737491 # occ.  2.00000000

ion      s     py     pz     px    dxy    dyz    dz2    dxz    dx2    tot
  1  0.447  0.033  0.000  0.074  0.124  0.023  0.010  0.015  0.013  0.740

band   2 # energy    1.30783174 # occ.  2.00000000

ion      s     py     pz     px    dxy    dyz    dz2    dxz    dx2    tot
  1  0.015  0.005  0.034  0.006  0.001  0.642  0.000  0.189  0.002  0.895

band   3 # energy    2.21315405 # occ.  2.00000000

ion      s     py     pz     px    dxy    dyz    dz2    dxz    dx2    tot
  1  0.001  0.014  0.000  0.003  0.333  0.005  0.423  0.002  0.134  0.914

band   4 # energy    3.10563253 # occ.  2.00000000

ion      s     py     pz     px    dxy    dyz    dz2    dxz    dx2    tot
  1  0.004  0.001  0.002  0.005  0.035  0.118  0.052  0.356  0.368  0.942

band   5 # energy    3.71879051 # occ.  2.00000000

ion      s     py     pz     px    dxy    dyz    dz2    dxz    dx2    tot
  1  0.008  0.001  0.003  0.009  0.013  0.115  0.028  0.351  0.418  0.944

band   6 # energy    5.66606000 # occ.  2.00000000

ion      s     py     pz     px    dxy    dyz    dz2    dxz    dx2    tot
  1  0.051  0.014  0.000  0.020  0.433  0.001  0.436  0.000  0.000  0.956

band   7 # energy   19.51245527 # occ.  0.00000000

ion      s     py     pz     px    dxy    dyz    dz2    dxz    dx2    tot
  1  0.170  0.133  0.052  0.094  0.086  0.031  0.037  0.031  0.001  0.635

band   8 # energy   22.65035451 # occ.  0.00000000

ion      s     py     pz     px    dxy    dyz    dz2    dxz    dx2    tot
  1  0.010  0.018  0.303  0.007  0.011  0.172  0.016  0.164  0.000  0.701

band   9 # energy   25.99466996 # occ.  0.00000000

ion      s     py     pz     px    dxy    dyz    dz2    dxz    dx2    tot
  1  0.027  0.046  0.020  0.107  0.002  0.000  0.037  0.003  0.051  0.294


 k-point   15 :   -0.06250000 0.18750000 0.06250000     weight = 0.02343750

band   1 # energy   -2.07312940 # occ.  2.00000000

ion      s     py     pz     px    dxy    dyz    dz2    dxz    dx2    tot
  1  0.598  0.018  0.002  0.054  0.023  0.003  0.004  0.004  0.004  0.708

band   2 # energy    1.49834267 # occ.  2.00000000

ion      s     py     pz     px    dxy    dyz    dz2    dxz    dx2    tot
  1  0.003  0.002  0.012  0.001  0.009  0.735  0.000  0.155  0.000  0.918

band   3 # energy    2.56739255 # occ.  2.00000000

ion      s     py     pz     px    dxy    dyz    dz2    dxz    dx2    tot
  1  0.001  0.008  0.000  0.003  0.639  0.023  0.202  0.009  0.053  0.938

band   4 # energy    2.72213444 # occ.  2.00000000

ion      s     py     pz     px    dxy    dyz    dz2    dxz    dx2    tot
  1  0.000  0.000  0.004  0.000  0.034  0.143  0.009  0.704  0.053  0.947

band   5 # energy    3.56703051 # occ.  2.00000000

ion      s     py     pz     px    dxy    dyz    dz2    dxz    dx2    tot
  1  0.007  0.001  0.000  0.005  0.063  0.019  0.012  0.051  0.790  0.948

band   6 # energy    4.47264675 # occ.  2.00000000

ion      s     py     pz     px    dxy    dyz    dz2    dxz    dx2    tot
  1  0.005  0.002  0.000  0.002  0.168  0.000  0.736  0.006  0.049  0.968

band   7 # energy   22.58406554 # occ.  0.00000000

ion      s     py     pz     px    dxy    dyz    dz2    dxz    dx2    tot
  1  0.082  0.099  0.043  0.067  0.081  0.030  0.018  0.033  0.005  0.458

band   8 # energy   24.44618563 # occ.  0.00000000

ion      s     py     pz     px    dxy    dyz    dz2    dxz    dx2    tot
  1  0.003  0.004  0.072  0.002  0.001  0.151  0.007  0.088  0.002  0.329

band   9 # energy   27.10057692 # occ.  0.00000000

ion      s     py     pz     px    dxy    dyz    dz2    dxz    dx2    tot
  1  0.001  0.038  0.233  0.004  0.035  0.000  0.006  0.066  0.001  0.383


 k-point   16 :    0.31250000 0.31250000 0.06250000     weight = 0.01171875

band   1 # energy   -0.62404791 # occ.  2.00000000

ion      s     py     pz     px    dxy    dyz    dz2    dxz    dx2    tot
  1  0.350  0.001  0.094  0.001  0.004  0.003  0.291  0.003  0.000  0.748

band   2 # energy    0.48977726 # occ.  2.00000000

ion      s     py     pz     px    dxy    dyz    dz2    dxz    dx2    tot
  1  0.001  0.002  0.000  0.002  0.893  0.003  0.002  0.003  0.000  0.905

band   3 # energy    2.88431842 # occ.  2.00000000

ion      s     py     pz     px    dxy    dyz    dz2    dxz    dx2    tot
  1  0.110  0.001  0.069  0.001  0.003  0.101  0.492  0.101  0.000  0.878

band   4 # energy    3.89351274 # occ.  2.00000000

ion      s     py     pz     px    dxy    dyz    dz2    dxz    dx2    tot
  1  0.000  0.009  0.000  0.009  0.000  0.401  0.000  0.401  0.130  0.950

band   5 # energy    4.35756804 # occ.  2.00000000

ion      s     py     pz     px    dxy    dyz    dz2    dxz    dx2    tot
  1  0.044  0.009  0.032  0.009  0.005  0.358  0.112  0.358  0.000  0.929

band   6 # energy    4.99361774 # occ.  2.00000000

ion      s     py     pz     px    dxy    dyz    dz2    dxz    dx2    tot
  1  0.000  0.001  0.000  0.001  0.000  0.065  0.000  0.065  0.845  0.977

band   7 # energy   21.75396299 # occ.  0.00000000

ion      s     py     pz     px    dxy    dyz    dz2    dxz    dx2    tot
  1  0.074  0.179  0.043  0.179  0.022  0.071  0.007  0.071  0.000  0.647

band   8 # energy   23.02444403 # occ.  0.00000000
