----- GAMESS execution script 'rungms' -----
This job is running on host dftfe.crc.nd.edu
under operating system Linux at Thu Feb 26 00:14:38 EST 2015
Available scratch disk space (Kbyte units) at beginning of the job is
Filesystem     1K-blocks     Used Available Use% Mounted on
/dev/sda2      147771864 22811700 117453732  17% /
GAMESS temporary binary files will be written to /tmp
GAMESS supplementary output files will be written to /tmp
Copying input file gamess.inp to your run's scratch directory...

 Distributed Data Interface kickoff program.
 Initiating 1 compute processes on 1 nodes to run the following command:
 /opt/crc/gamess/2012R1/gamess/gamess.00.x gamess 

          ******************************************************
          *         GAMESS VERSION =  1 MAY 2012 (R1)          *
          *             FROM IOWA STATE UNIVERSITY             *
          * M.W.SCHMIDT, K.K.BALDRIDGE, J.A.BOATZ, S.T.ELBERT, *
          *   M.S.GORDON, J.H.JENSEN, S.KOSEKI, N.MATSUNAGA,   *
          *          K.A.NGUYEN, S.J.SU, T.L.WINDUS,           *
          *       TOGETHER WITH M.DUPUIS, J.A.MONTGOMERY       *
          *         J.COMPUT.CHEM.  14, 1347-1363(1993)        *
          **************** 64 BIT LINUX VERSION ****************

  SINCE 1993, STUDENTS AND POSTDOCS WORKING AT IOWA STATE UNIVERSITY
  AND ALSO IN THEIR VARIOUS JOBS AFTER LEAVING ISU HAVE MADE IMPORTANT
  CONTRIBUTIONS TO THE CODE:
     IVANA ADAMOVIC, CHRISTINE AIKENS, YURI ALEXEEV, POOJA ARORA,
     ANDREY ASADCHEV, ROB BELL, PRADIPTA BANDYOPADHYAY, JONATHAN BENTZ,
     BRETT BODE, GALINA CHABAN, WEI CHEN, CHEOL HO CHOI, PAUL DAY,
     ALBERT DEFUSCO, TIM DUDLEY, DMITRI FEDOROV, GRAHAM FLETCHER,
     MARK FREITAG, KURT GLAESEMANN, DAN KEMP, GRANT MERRILL,
     NORIYUKI MINEZAWA, JONATHAN MULLIN, TAKESHI NAGATA,
     SEAN NEDD, HEATHER NETZLOFF, BOSILJKA NJEGIC, RYAN OLSON, MIKE PAK,
     JIM SHOEMAKER, LYUDMILA SLIPCHENKO, SAROM SOK, JIE SONG,
     TETSUYA TAKETSUGU, SIMON WEBB, SOOHAENG YOO, FEDERICO ZAHARIEV

  ADDITIONAL CODE HAS BEEN PROVIDED BY COLLABORATORS IN OTHER GROUPS:
     IOWA STATE UNIVERSITY:
          JOE IVANIC, LAIMUTIS BYTAUTAS, KLAUS RUEDENBERG
     UNIVERSITY OF TOKYO: KIMIHIKO HIRAO, TAKAHITO NAKAJIMA,
          TAKAO TSUNEDA, MUNEAKI KAMIYA, SUSUMU YANAGISAWA,
          KIYOSHI YAGI, MAHITO CHIBA, SEIKEN TOKURA, NAOAKI KAWAKAMI
     UNIVERSITY OF AARHUS: FRANK JENSEN
     UNIVERSITY OF IOWA: VISVALDAS KAIRYS, HUI LI
     NATIONAL INST. OF STANDARDS AND TECHNOLOGY: WALT STEVENS, DAVID GARMER
     UNIVERSITY OF PISA: BENEDETTA MENNUCCI, JACOPO TOMASI
     UNIVERSITY OF MEMPHIS: HENRY KURTZ, PRAKASHAN KORAMBATH
     UNIVERSITY OF ALBERTA: TOBY ZENG, MARIUSZ KLOBUKOWSKI
     UNIVERSITY OF NEW ENGLAND: MARK SPACKMAN
     MIE UNIVERSITY: HIROAKI UMEDA
     MICHIGAN STATE UNIVERSITY:
          KAROL KOWALSKI, MARTA WLOCH, JEFFREY GOUR, JESSE LUTZ, PIOTR PIECUCH
     UNIVERSITY OF SILESIA: MONIKA MUSIAL, STANISLAW KUCHARSKI
     FACULTES UNIVERSITAIRES NOTRE-DAME DE LA PAIX:
          OLIVIER QUINET, BENOIT CHAMPAGNE
     UNIVERSITY OF CALIFORNIA - SANTA BARBARA: BERNARD KIRTMAN
     INSTITUTE FOR MOLECULAR SCIENCE:
          KAZUYA ISHIMURA, MICHIO KATOUDA, AND SHIGERU NAGASE
     UNIVERSITY OF NOTRE DAME: DAN CHIPMAN
     KYUSHU UNIVERSITY:
          HARUYUKI NAKANO,
          FENG LONG GU, JACEK KORCHOWIEC, MARCIN MAKOWSKI, AND YURIKO AOKI,
          HIROTOSHI MORI AND EISAKU MIYOSHI
     PENNSYLVANIA STATE UNIVERSITY:
          TZVETELIN IORDANOV, CHET SWALINA, JONATHAN SKONE,
          SHARON HAMMES-SCHIFFER
     WASEDA UNIVERSITY:
          MASATO KOBAYASHI, TOMOKO AKAMA, TSUGUKI TOUMA,
          TAKESHI YOSHIKAWA, YASUHIRO IKABATA, HIROMI NAKAI
     UNIVERSITY OF NEBRASKA:
          PEIFENG SU, DEJUN SI, NANDUN THELLAMUREGE, YALI WANG, HUI LI
     UNIVERSITY OF ZURICH:
          ROBERTO PEVERATI, KIM BALDRIDGE
     N. COPERNICUS UNIVERSITY AND JACKSON STATE UNIVERSITY:
          MARIA BARYSZ

 EXECUTION OF GAMESS BEGUN Thu Feb 26 00:14:38 2015

            ECHO OF THE FIRST FEW INPUT CARDS -
 INPUT CARD> $BASIS GBASIS=PC1 $END                                                         
 INPUT CARD> $CONTRL COORD=ZMT ISPHER=1 RUNTYP=ENERGY DFTTYP=PBE $END                       
 INPUT CARD>                                                                                
 INPUT CARD> $DATA                                                                          
 INPUT CARD>Title                                                                           
 INPUT CARD>Cnv 2                                                                           
 INPUT CARD>                                                                                
 INPUT CARD>S                                                                               
 INPUT CARD>O 1 1.30                                                                        
 INPUT CARD>O 1 1.30 2 150.0                                                                
 INPUT CARD> $END                                                                           
    1000000 WORDS OF MEMORY AVAILABLE

     BASIS OPTIONS
     -------------
     GBASIS=PC1          IGAUSS=       0      POLAR=NONE    
     NDFUNC=       0     NFFUNC=       0     DIFFSP=       F
     NPFUNC=       0      DIFFS=       F     BASNAM=        


     RUN TITLE
     ---------
 Title                                                                           

 THE POINT GROUP OF THE MOLECULE IS CNV     
 THE ORDER OF THE PRINCIPAL AXIS IS     2

 YOUR FULLY SUBSTITUTED Z-MATRIX IS
 S   
 O      1   1.3000000
 O      1   1.3000000  2  150.0000

 THE MOMENTS OF INERTIA ARE (AMU-ANGSTROM**2)
 IXX=     1.810   IYY=    50.441   IZZ=    52.252

 ATOM      ATOMIC                      COORDINATES (BOHR)
           CHARGE         X                   Y                   Z
 S          16.0     0.0000000000        0.0000000000       -0.3180013229
 O           8.0    -2.3729356770        0.0000000000        0.3178248754
 O           8.0     2.3729356770        0.0000000000        0.3178248754

          INTERNUCLEAR DISTANCES (ANGS.)
          ------------------------------

                1 S          2 O          3 O     

   1 S       0.0000000    1.3000000 *  1.3000000 *
   2 O       1.3000000 *  0.0000000    2.5114071 *
   3 O       1.3000000 *  2.5114071 *  0.0000000  

  * ... LESS THAN  3.000


     ATOMIC BASIS SET
     ----------------
 THE CONTRACTED PRIMITIVE FUNCTIONS HAVE BEEN UNNORMALIZED
 THE CONTRACTED BASIS FUNCTIONS ARE NOW NORMALIZED TO UNITY

  SHELL TYPE  PRIMITIVE        EXPONENT          CONTRACTION COEFFICIENT(S)

 S         

      1   S       1         55510.0000000    0.000587229760
      1   S       2          8326.7000000    0.004532413947
      1   S       3          1895.6000000    0.023265261648
      1   S       4           536.7700000    0.089696133027
      1   S       5           174.6700000    0.254098332277
      1   S       6            62.5780000    0.438665087637
      1   S       7            23.5730000    0.314547135094
      1   S       8             5.8908000    0.032727897102

      2   S       9          8326.7000000   -0.000019755715
      2   S      10          1895.6000000   -0.000043822381
      2   S      11           536.7700000   -0.001730264906
      2   S      12           174.6700000   -0.009381263460
      2   S      13            62.5780000   -0.064050766303
      2   S      14            23.5730000   -0.082478179196
      2   S      15             5.8908000    0.478342956889
      2   S      16             2.1852000    0.626896670208

      3   S      17          1895.6000000    0.000016227260
      3   S      18           536.7700000    0.000191135619
      3   S      19           174.6700000    0.001952069674
      3   S      20            62.5780000    0.010578701087
      3   S      21            23.5730000    0.022164934551
      3   S      22             5.8908000   -0.184968323118
      3   S      23             2.1852000   -0.480920750976
      3   S      24             0.4528200    1.243822243872

      4   S      25             0.1620200    1.000000000000

      5   P      26           395.4500000    0.004642761329
      5   P      27            92.8340000    0.036023396489
      5   P      28            29.2660000    0.149058869978
      5   P      29            10.5950000    0.360033266263
      5   P      30             4.0272000    0.455756476221
      5   P      31             1.5484000    0.206167664178

      6   P      32            92.8340000    0.000169901442
      6   P      33            29.2660000   -0.002541839934
      6   P      34            10.5950000   -0.007867614595
      6   P      35             4.0272000   -0.037231009184
      6   P      36             1.5484000    0.161417246830
      6   P      37             0.4613400    0.902230419976

      7   P      38             0.1313100    1.000000000000

      8   D      39             0.5500000    1.000000000000

 O         

     15   S      40          2306.7000000    0.005424388755
     15   S      41           347.1500000    0.040474749465
     15   S      42            78.8900000    0.180219634554
     15   S      43            21.8760000    0.462370311787
     15   S      44             6.6646000    0.454888396263

     16   S      45           347.1500000   -0.000655003786
     16   S      46            78.8900000   -0.005362052952
     16   S      47            21.8760000   -0.074902158894
     16   S      48             6.6646000   -0.181442579655
     16   S      49             1.0669000    1.102006874042

     17   S      50             0.3070000    1.000000000000

     18   P      51            17.0220000    0.068979967443
     18   P      52             3.6838000    0.351985516325
     18   P      53             0.9923400    0.724036547822

     19   P      54             0.2448700    1.000000000000

     20   D      55             1.0000000    1.000000000000

 TOTAL NUMBER OF BASIS SET SHELLS             =   20
 NUMBER OF CARTESIAN GAUSSIAN BASIS FUNCTIONS =   49
 NOTE: THIS RUN WILL RESTRICT THE MO VARIATION SPACE TO SPHERICAL HARMONICS.
 THE NUMBER OF ORBITALS KEPT IN THE VARIATIONAL SPACE WILL BE PRINTED LATER.
 NUMBER OF ELECTRONS                          =   32
 CHARGE OF MOLECULE                           =    0
 SPIN MULTIPLICITY                            =    1
 NUMBER OF OCCUPIED ORBITALS (ALPHA)          =   16
 NUMBER OF OCCUPIED ORBITALS (BETA )          =   16
 TOTAL NUMBER OF ATOMS                        =    3
 THE NUCLEAR REPULSION ENERGY IS      117.6926177298

     LEBEDEV GRID-BASED DFT OPTIONS
     ------------------------------
     DFTTYP=PBE     
     NRAD  =      96     NLEB  =     302
     NRAD0 =      24     NLEB0 =     110
     SWOFF =    5.00E-03 (PURE SCF -> DFT)
     SWITCH=    3.00E-04 (COARSE -> TIGHT GRID)
     THRESH=    0.00E+00 GTHRE=    1.00E+00

 GRIMME'S EMPIRICAL DISPERSION CORRECTION= F

     $CONTRL OPTIONS
     ---------------
 SCFTYP=RHF          RUNTYP=ENERGY       EXETYP=RUN     
 MPLEVL=       0     CITYP =NONE         CCTYP =NONE         VBTYP =NONE    
 DFTTYP=PBE          TDDFT =NONE    
 MULT  =       1     ICHARG=       0     NZVAR =       0     COORD =ZMT     
 PP    =NONE         RELWFN=NONE         LOCAL =NONE         NUMGRD=       F
 ISPHER=       1     NOSYM =       0     MAXIT =      30     UNITS =ANGS    
 PLTORB=       F     MOLPLT=       F     AIMPAC=       F     FRIEND=        
 NPRINT=       7     IREST =       0     GEOM  =INPUT   
 NORMF =       0     NORMP =       0     ITOL  =      20     ICUT  =       9
 INTTYP=BEST         GRDTYP=BEST         QMTTOL= 1.0E-06

     $SYSTEM OPTIONS
     ---------------
  REPLICATED MEMORY=     1000000 WORDS (ON EVERY NODE).
 DISTRIBUTED MEMDDI=           0 MILLION WORDS IN AGGREGATE,
 MEMDDI DISTRIBUTED OVER   1 PROCESSORS IS           0 WORDS/PROCESSOR.
 TOTAL MEMORY REQUESTED ON EACH PROCESSOR=     1000000 WORDS.
 TIMLIM=      525600.00 MINUTES, OR     365.0 DAYS.
 PARALL= F  BALTYP=  DLB     KDIAG=    0  COREFL= F
 MXSEQ2=     300 MXSEQ3=     150

          ----------------
          PROPERTIES INPUT
          ----------------

     MOMENTS            FIELD           POTENTIAL          DENSITY
 IEMOM =       1   IEFLD =       0   IEPOT =       0   IEDEN =       0
 WHERE =COMASS     WHERE =NUCLEI     WHERE =NUCLEI     WHERE =NUCLEI  
 OUTPUT=BOTH       OUTPUT=BOTH       OUTPUT=BOTH       OUTPUT=BOTH    
 IEMINT=       0   IEFINT=       0                     IEDINT=       0
                                                       MORB  =       0
          EXTRAPOLATION IN EFFECT
          DIIS IN EFFECT
 ORBITAL PRINTING OPTION: NPREO=     1    49     2     1

     -------------------------------
     INTEGRAL TRANSFORMATION OPTIONS
     -------------------------------
     NWORD  =            0
     CUTOFF = 1.0E-09     MPTRAN =       0
     DIRTRF =       F     AOINTS =DUP     

          ----------------------
          INTEGRAL INPUT OPTIONS
          ----------------------
 NOPK  =       1 NORDER=       0 SCHWRZ=       F

   --- ENCODED Z MATRIX ---
 COORD  TYPE   I   J   K   L   M   N
    1      1    3   1
    2      1    2   1
    3      2    2   1   3

 THE DETERMINANT OF THE G MATRIX IS 10**(    -4)

 THE DETERMINANT OF THE G MATRIX IS 10**(    -4)
 * * * WARNING * * *
 YOUR B MATRIX HAS A SMALL DETERMINANT.
 THIS SUGGESTS YOU MAY HAVE BADLY CHOSEN COORDINATES.

     ------------------------------------------
     THE POINT GROUP IS CNV, NAXIS= 2, ORDER= 4
     ------------------------------------------

 -- VARIATIONAL SPACE WILL BE RESTRICTED TO PURE SPHERICAL HARMONICS ONLY --
 AFTER EXCLUDING CONTAMINANT COMBINATIONS FROM THE CARTESIAN GAUSSIAN BASIS
 SET, THE NUMBER OF SPHERICAL HARMONICS KEPT IN THE VARIATION SPACE IS   46

     DIMENSIONS OF THE SYMMETRY SUBSPACES ARE
 A1  =   19     A2  =    5     B1  =   14     B2  =    8

 ..... DONE SETTING UP THE RUN .....
 STEP CPU TIME =     0.01 TOTAL CPU TIME =        0.0 (    0.0 MIN)
 TOTAL WALL CLOCK TIME=        0.0 SECONDS, CPU UTILIZATION IS  50.00%

          ********************
          1 ELECTRON INTEGRALS
          ********************
 ...... END OF ONE-ELECTRON INTEGRALS ......
 STEP CPU TIME =     0.00 TOTAL CPU TIME =        0.0 (    0.0 MIN)
 TOTAL WALL CLOCK TIME=        0.0 SECONDS, CPU UTILIZATION IS  33.33%

          -------------
          GUESS OPTIONS
          -------------
          GUESS =HUCKEL            NORB  =       0          NORDER=       0
          MIX   =       F          PRTMO =       F          PUNMO =       F
          TOLZ  = 1.0E-08          TOLE  = 1.0E-05
          SYMDEN=       F          PURIFY=       F

 INITIAL GUESS ORBITALS GENERATED BY HUCKEL   ROUTINE.
 HUCKEL GUESS REQUIRES     21583 WORDS.

 STATISTICS FOR GENERATION OF SYMMETRY ORBITAL -Q- MATRIX
 NUMBER OF CARTESIAN ATOMIC ORBITALS=         49
 NUMBER OF SPHERICAL CONTAMINANTS DROPPED=     3
 NUMBER OF LINEARLY DEPENDENT MOS DROPPED=     0
 TOTAL NUMBER OF MOS IN VARIATION SPACE=      46

 SYMMETRIES FOR INITIAL GUESS ORBITALS FOLLOW.   BOTH SET(S).
    16 ORBITALS ARE OCCUPIED (    7 CORE ORBITALS).
     8=?A1      9=?B1     10=A1      11=B2      12=A1      13=B1      14=A2  
    15=B1      16=A1      17=B2      18=?A1     19=B1      20=A1      21=A1  
    22=A1      23=A1      24=A1      25=A1      26=A1  
 ...... END OF INITIAL ORBITAL SELECTION ......
 STEP CPU TIME =     0.01 TOTAL CPU TIME =        0.0 (    0.0 MIN)
 TOTAL WALL CLOCK TIME=        0.0 SECONDS, CPU UTILIZATION IS  66.67%

                    ----------------------
                    AO INTEGRAL TECHNOLOGY
                    ----------------------
     S,P,L SHELL ROTATED AXIS INTEGRALS, REPROGRAMMED BY
        KAZUYA ISHIMURA (IMS) AND JOSE SIERRA (SYNSTAR).
     S,P,D,L SHELL ROTATED AXIS INTEGRALS PROGRAMMED BY
        KAZUYA ISHIMURA (INSTITUTE FOR MOLECULAR SCIENCE).
     S,P,D,F,G SHELL TO TOTAL QUARTET ANGULAR MOMENTUM SUM 5,
        ERIC PROGRAM BY GRAHAM FLETCHER (ELORET AND NASA ADVANCED
        SUPERCOMPUTING DIVISION, AMES RESEARCH CENTER).
     S,P,D,F,G,L SHELL GENERAL RYS QUADRATURE PROGRAMMED BY
        MICHEL DUPUIS (PACIFIC NORTHWEST NATIONAL LABORATORY).

          --------------------
          2 ELECTRON INTEGRALS
          --------------------

 THE -PK- OPTION IS OFF, THE INTEGRALS ARE NOT IN SUPERMATRIX FORM.
 STORING   15000 INTEGRALS/RECORD ON DISK, USING 12 BYTES/INTEGRAL.
 TWO ELECTRON INTEGRAL EVALUATION REQUIRES   90606 WORDS OF MEMORY.
 II,JST,KST,LST =  1  1  1  1 NREC =         1 INTLOC =    1
 II,JST,KST,LST =  2  1  1  1 NREC =         1 INTLOC =    2
 II,JST,KST,LST =  3  1  1  1 NREC =         1 INTLOC =    7
 II,JST,KST,LST =  4  1  1  1 NREC =         1 INTLOC =   22
 II,JST,KST,LST =  5  1  1  1 NREC =         1 INTLOC =   56
 II,JST,KST,LST =  6  1  1  1 NREC =         1 INTLOC =  125
 II,JST,KST,LST =  7  1  1  1 NREC =         1 INTLOC =  329
 II,JST,KST,LST =  8  1  1  1 NREC =         1 INTLOC =  776
 II,JST,KST,LST =  9  1  1  1 NREC =         1 INTLOC = 2864
 II,JST,KST,LST = 10  1  1  1 NREC =         1 INTLOC = 2864
 II,JST,KST,LST = 11  1  1  1 NREC =         1 INTLOC = 2864
 II,JST,KST,LST = 12  1  1  1 NREC =         1 INTLOC = 2864
 II,JST,KST,LST = 13  1  1  1 NREC =         1 INTLOC = 2864
 II,JST,KST,LST = 14  1  1  1 NREC =         1 INTLOC = 2864
 II,JST,KST,LST = 15  1  1  1 NREC =         1 INTLOC = 2864
 II,JST,KST,LST = 16  1  1  1 NREC =         1 INTLOC = 5130
 II,JST,KST,LST = 17  1  1  1 NREC =         1 INTLOC = 8314
 II,JST,KST,LST = 18  1  1  1 NREC =         1 INTLOC =12750
 II,JST,KST,LST = 19  1  1  1 NREC =         3 INTLOC =  636
 II,JST,KST,LST = 20  1  1  1 NREC =         5 INTLOC = 1834
 TOTAL NUMBER OF NONZERO TWO-ELECTRON INTEGRALS =              178104
         12 INTEGRAL RECORDS WERE STORED ON DISK FILE  8.
  ...... END OF TWO-ELECTRON INTEGRALS .....
 STEP CPU TIME =     0.16 TOTAL CPU TIME =        0.2 (    0.0 MIN)
 TOTAL WALL CLOCK TIME=        0.2 SECONDS, CPU UTILIZATION IS  90.00%

          --------------------------
               R-PBE SCF CALCULATION
          --------------------------

     NUCLEAR ENERGY =       117.6926177298
     MAXIT =   30     NPUNCH=    2
     EXTRAP=T  DAMP=F  SHIFT=F  RSTRCT=F  DIIS=T  DEM=F  SOSCF=F
         DENSITY MATRIX CONVERGENCE THRESHOLD=  1.00E-05
     COARSE -> FINE DFT GRID SWITCH THRESHOLD=  3.00E-04 (SWITCH IN $DFT)
                   HF -> DFT SWITCH THRESHOLD=  5.00E-03 (SWOFF IN $DFT)
     MEMORY REQUIRED FOR RHF ITERS=    183108 WORDS.

 DFT CODE IS SWITCHING FROM THE FINE GRID NRAD= 96,  NLEB=  302
                      TO THE COARSE GRID NRAD0= 24, NLEB0=  110

     EXCHANGE FUNCTIONAL   =PBE       
     CORRELATION FUNCTIONAL=PBE       
     DFT THRESHOLD         =.460E-07
     GRID CHANGE THRESHOLD =.300E-03
 FOR AN EULER-MACLAURIN QUADRATURE USING  96 RADIAL POINTS:
 SMALLEST GAUSSIAN PRIMITIVE EXPONENT=        0.1313100000 OF TYPE -P-
 ON ATOM NUMBER   1 HAS RADIAL NORMALIZATION=  1.000000
  LARGEST GAUSSIAN PRIMITIVE EXPONENT=    55510.0000000000 OF TYPE -S-
 ON ATOM NUMBER   1 HAS RADIAL NORMALIZATION=  0.999999
 DFT IS SWITCHED OFF, PERFORMING PURE SCF UNTIL SWOFF THRESHOLD IS REACHED.

 ITER EX DEM     TOTAL ENERGY        E CHANGE  DENSITY CHANGE    DIIS ERROR
   1  0  0     -545.8130547605  -545.8130547605   0.402124703   1.467387908
          * * *   INITIATING DIIS PROCEDURE   * * *
   2  1  0     -546.8128480004    -0.9997932399   0.653073550   0.227740673
   3  2  0     -546.9346210107    -0.1217730103   0.094206357   0.148923624
   4  3  0     -546.9912488863    -0.0566278757   0.177842932   0.030350717
   5  4  0     -546.9992768464    -0.0080279601   0.123698185   0.015165938
   6  5  0     -547.0015327266    -0.0022558802   0.042241284   0.005165119
   7  6  0     -547.0018073314    -0.0002746048   0.005158070   0.000622870
   8  7  0     -547.0018108583    -0.0000035269   0.000286785   0.000127181
 CONVERGED TO SWOFF, SO DFT CALCULATION IS NOW SWITCHED ON.
 DFT CODE IS SWITCHING BACK TO THE FINE GRID
          * * *   INITIATING DIIS PROCEDURE   * * *
   9  8  0     -548.0804223335    -1.0786114752   0.184957407   0.106201105
  10  9  0     -548.0967617891    -0.0163394556   0.110973934   0.053535444
  11 10  0     -548.0947567468     0.0020050423   0.048131080   0.061671072
  12 11  0     -548.1060002787    -0.0112435319   0.010319016   0.012377280
  13 12  0     -548.1062929436    -0.0002926649   0.001724672   0.000811135
  14 13  0     -548.1062940353    -0.0000010917   0.000815123   0.000090848
  15 14  0     -548.1062940747    -0.0000000394   0.000136100   0.000021000
  16 15  0     -548.1062940764    -0.0000000017   0.000008656   0.000002161
  17 16  0     -548.1062940765     0.0000000000   0.000000977   0.000000139

          -----------------
          DENSITY CONVERGED
          -----------------
     TIME TO FORM FOCK OPERATORS=       4.6 SECONDS (       0.3 SEC/ITER)
     TIME TO SOLVE SCF EQUATIONS=       0.0 SECONDS (       0.0 SEC/ITER)

 FINAL R-PBE ENERGY IS     -548.1062940765 AFTER  17 ITERATIONS
 DFT EXCHANGE + CORRELATION ENERGY =       -42.8010364279
 TOTAL ELECTRON NUMBER             =        32.0000118281

          ------------
          EIGENVECTORS
          ------------

                      1          2          3          4          5
                  -88.1863   -18.7930   -18.7930    -7.8168    -5.8396
                     A1         B1         A1         A1         B1  
    1  S  1  S    1.002992   0.000000  -0.000057  -0.273912   0.000000
    2  S  1  S   -0.010216   0.000000   0.000529   1.039404   0.000000
    3  S  1  S    0.002064   0.000000  -0.000082   0.042438   0.000000
    4  S  1  S   -0.000260   0.000000   0.009390  -0.007594   0.000000
    5  S  1  X    0.000000  -0.000222   0.000000   0.000000   0.995639
    6  S  1  Y    0.000000   0.000000   0.000000   0.000000   0.000000
    7  S  1  Z    0.000066   0.000000   0.000023   0.015134   0.000000
    8  S  1  X    0.000000  -0.000879   0.000000   0.000000   0.011017
    9  S  1  Y    0.000000   0.000000   0.000000   0.000000   0.000000
   10  S  1  Z    0.000131   0.000000   0.000457   0.002178   0.000000
   11  S  1  X    0.000000  -0.008251   0.000000   0.000000  -0.000514
   12  S  1  Y    0.000000   0.000000   0.000000   0.000000   0.000000
   13  S  1  Z    0.000043   0.000000   0.002556  -0.000211   0.000000
   14  S  1 XX    0.000380   0.000000  -0.001295   0.003257   0.000000
   15  S  1 YY   -0.000202   0.000000   0.000505  -0.001640   0.000000
   16  S  1 ZZ   -0.000178   0.000000   0.000790  -0.001616   0.000000
   17  S  1 XY    0.000000   0.000000   0.000000   0.000000   0.000000
   18  S  1 XZ    0.000000   0.000644   0.000000   0.000000   0.001939
   19  S  1 YZ    0.000000   0.000000   0.000000   0.000000   0.000000
   20  O  2  S    0.000019   0.703260   0.703221  -0.000487   0.001294
   21  O  2  S    0.000026   0.026815   0.026487   0.000018  -0.001467
   22  O  2  S   -0.000482  -0.015193  -0.012929  -0.002658  -0.000065
   23  O  2  X   -0.000160   0.001159   0.001583  -0.000346  -0.002414
   24  O  2  Y    0.000000   0.000000   0.000000   0.000000   0.000000
   25  O  2  Z    0.000053  -0.000266  -0.000156   0.000152   0.000807
   26  O  2  X   -0.000361  -0.002407  -0.003771  -0.002651   0.000262
   27  O  2  Y    0.000000   0.000000   0.000000   0.000000   0.000000
   28  O  2  Z    0.000118   0.001658  -0.000223   0.000958   0.000296
   29  O  2 XX   -0.000146   0.000079  -0.000213   0.000259  -0.001164
   30  O  2 YY    0.000091   0.000058   0.000040  -0.000083   0.000760
   31  O  2 ZZ    0.000055  -0.000138   0.000173  -0.000176   0.000404
   32  O  2 XY    0.000000   0.000000   0.000000   0.000000   0.000000
   33  O  2 XZ    0.000105   0.000288  -0.000247   0.000092   0.000970
   34  O  2 YZ    0.000000   0.000000   0.000000   0.000000   0.000000
   35  O  3  S    0.000019  -0.703260   0.703221  -0.000487  -0.001294
   36  O  3  S    0.000026  -0.026815   0.026487   0.000018   0.001467
   37  O  3  S   -0.000482   0.015193  -0.012929  -0.002658   0.000065
   38  O  3  X    0.000160   0.001159  -0.001583   0.000346  -0.002414
   39  O  3  Y    0.000000   0.000000   0.000000   0.000000   0.000000
   40  O  3  Z    0.000053   0.000266  -0.000156   0.000152  -0.000807
   41  O  3  X    0.000361  -0.002407   0.003771   0.002651   0.000262
   42  O  3  Y    0.000000   0.000000   0.000000   0.000000   0.000000
   43  O  3  Z    0.000118  -0.001658  -0.000223   0.000958  -0.000296
   44  O  3 XX   -0.000146  -0.000079  -0.000213   0.000259   0.001164
   45  O  3 YY    0.000091  -0.000058   0.000040  -0.000083  -0.000760
   46  O  3 ZZ    0.000055   0.000138   0.000173  -0.000176  -0.000404
   47  O  3 XY    0.000000   0.000000   0.000000   0.000000   0.000000
   48  O  3 XZ   -0.000105   0.000288   0.000247  -0.000092   0.000970
   49  O  3 YZ    0.000000   0.000000   0.000000   0.000000   0.000000

                      6          7          8          9         10
                   -5.8344    -5.8293    -1.1294    -1.0479    -0.5410
                     B2         A1         A1         B1         A1  
    1  S  1  S    0.000000   0.004391   0.057134   0.000000  -0.054759
    2  S  1  S    0.000000  -0.016448  -0.170607   0.000000   0.144304
    3  S  1  S    0.000000   0.000735   0.317575   0.000000  -0.358472
    4  S  1  S    0.000000  -0.001281   0.115860   0.000000  -0.235957
    5  S  1  X    0.000000   0.000000   0.000000  -0.179155   0.000000
    6  S  1  Y    0.996752   0.000000   0.000000   0.000000   0.000000
    7  S  1  Z    0.000000   0.996657  -0.048904   0.000000  -0.002146
    8  S  1  X    0.000000   0.000000   0.000000   0.317547   0.000000
    9  S  1  Y    0.009297   0.000000   0.000000   0.000000   0.000000
   10  S  1  Z    0.000000   0.009034   0.089366   0.000000  -0.002988
   11  S  1  X    0.000000   0.000000   0.000000  -0.000553   0.000000
   12  S  1  Y   -0.000354   0.000000   0.000000   0.000000   0.000000
   13  S  1  Z    0.000000  -0.000382  -0.004609   0.000000   0.030953
   14  S  1 XX    0.000000  -0.000885   0.084036   0.000000   0.023444
   15  S  1 YY    0.000000  -0.000519  -0.046172   0.000000  -0.017150
   16  S  1 ZZ    0.000000   0.001405  -0.037864   0.000000  -0.006295
   17  S  1 XY    0.000000   0.000000   0.000000   0.000000   0.000000
   18  S  1 XZ    0.000000   0.000000   0.000000   0.060844   0.000000
   19  S  1 YZ    0.001099   0.000000   0.000000   0.000000   0.000000
   20  O  2  S    0.000000  -0.000337  -0.124675   0.143437  -0.104414
   21  O  2  S    0.000000   0.000419   0.240230  -0.282064   0.214112
   22  O  2  S    0.000000   0.000713   0.236136  -0.295728   0.367776
   23  O  2  X    0.000000   0.000887   0.133873  -0.132902  -0.254766
   24  O  2  Y    0.000316   0.000000   0.000000   0.000000   0.000000
   25  O  2  Z    0.000000   0.000062  -0.024856   0.031544   0.073417
   26  O  2  X    0.000000   0.000216   0.037894  -0.025685  -0.134029
   27  O  2  Y   -0.000022   0.000000   0.000000   0.000000   0.000000
   28  O  2  Z    0.000000  -0.000126   0.001191   0.010306   0.032923
   29  O  2 XX    0.000000   0.000518   0.016364  -0.011571  -0.014037
   30  O  2 YY    0.000000  -0.000152  -0.006783   0.006588   0.008543
   31  O  2 ZZ    0.000000  -0.000366  -0.009580   0.004983   0.005494
   32  O  2 XY    0.000397   0.000000   0.000000   0.000000   0.000000
   33  O  2 XZ    0.000000   0.000134  -0.001247   0.008482   0.007584
   34  O  2 YZ   -0.000165   0.000000   0.000000   0.000000   0.000000
   35  O  3  S    0.000000  -0.000337  -0.124675  -0.143437  -0.104414
   36  O  3  S    0.000000   0.000419   0.240230   0.282064   0.214112
   37  O  3  S    0.000000   0.000713   0.236136   0.295728   0.367776
   38  O  3  X    0.000000  -0.000887  -0.133873  -0.132902   0.254766
   39  O  3  Y    0.000316   0.000000   0.000000   0.000000   0.000000
   40  O  3  Z    0.000000   0.000062  -0.024856  -0.031544   0.073417
   41  O  3  X    0.000000  -0.000216  -0.037894  -0.025685   0.134029
   42  O  3  Y   -0.000022   0.000000   0.000000   0.000000   0.000000
   43  O  3  Z    0.000000  -0.000126   0.001191  -0.010306   0.032923
   44  O  3 XX    0.000000   0.000518   0.016364   0.011571  -0.014037
   45  O  3 YY    0.000000  -0.000152  -0.006783  -0.006588   0.008543
   46  O  3 ZZ    0.000000  -0.000366  -0.009580  -0.004983   0.005494
   47  O  3 XY   -0.000397   0.000000   0.000000   0.000000   0.000000
   48  O  3 XZ    0.000000  -0.000134   0.001247   0.008482  -0.007584
   49  O  3 YZ   -0.000165   0.000000   0.000000   0.000000   0.000000

                     11         12         13         14         15
                   -0.4880    -0.4785    -0.4522    -0.3790    -0.3676
                     B2         A1         B1         A2         B1  
    1  S  1  S    0.000000  -0.008193   0.000000   0.000000   0.000000
    2  S  1  S    0.000000   0.025561   0.000000   0.000000   0.000000
    3  S  1  S    0.000000  -0.049339   0.000000   0.000000   0.000000
    4  S  1  S    0.000000  -0.106522   0.000000   0.000000   0.000000
    5  S  1  X    0.000000   0.000000   0.157435   0.000000  -0.009365
    6  S  1  Y   -0.200869   0.000000   0.000000   0.000000   0.000000
    7  S  1  Z    0.000000  -0.192069   0.000000   0.000000   0.000000
    8  S  1  X    0.000000   0.000000  -0.354933   0.000000   0.013027
    9  S  1  Y    0.454746   0.000000   0.000000   0.000000   0.000000
   10  S  1  Z    0.000000   0.430513   0.000000   0.000000   0.000000
   11  S  1  X    0.000000   0.000000   0.045491   0.000000   0.041316
   12  S  1  Y    0.181964   0.000000   0.000000   0.000000   0.000000
   13  S  1  Z    0.000000   0.167582   0.000000   0.000000   0.000000
   14  S  1 XX    0.000000  -0.069419   0.000000   0.000000   0.000000
   15  S  1 YY    0.000000  -0.005553   0.000000   0.000000   0.000000
   16  S  1 ZZ    0.000000   0.074972   0.000000   0.000000   0.000000
   17  S  1 XY    0.000000   0.000000   0.000000  -0.169624   0.000000
   18  S  1 XZ    0.000000   0.000000  -0.025808   0.000000  -0.163963
   19  S  1 YZ    0.047235   0.000000   0.000000   0.000000   0.000000
   20  O  2  S    0.000000   0.010195   0.068004   0.000000   0.002780
   21  O  2  S    0.000000  -0.020430  -0.141324   0.000000  -0.010875
   22  O  2  S    0.000000  -0.020071  -0.254869   0.000000  -0.010490
   23  O  2  X    0.000000   0.125517   0.372882   0.000000   0.174636
   24  O  2  Y    0.331922   0.000000   0.000000   0.456533   0.000000
   25  O  2  Z    0.000000   0.312475  -0.147381   0.000000   0.424943
   26  O  2  X    0.000000   0.083428   0.186396   0.000000   0.107052
   27  O  2  Y    0.184651   0.000000   0.000000   0.300175   0.000000
   28  O  2  Z    0.000000   0.172059  -0.089229   0.000000   0.281401
   29  O  2 XX    0.000000   0.016176   0.015601   0.000000   0.007972
   30  O  2 YY    0.000000  -0.004221  -0.010185   0.000000  -0.000597
   31  O  2 ZZ    0.000000  -0.011955  -0.005415   0.000000  -0.007375
   32  O  2 XY    0.028361   0.000000   0.000000   0.020612   0.000000
   33  O  2 XZ    0.000000   0.020921  -0.012840   0.000000   0.020883
   34  O  2 YZ   -0.005832   0.000000   0.000000  -0.003486   0.000000
   35  O  3  S    0.000000   0.010195  -0.068004   0.000000  -0.002780
   36  O  3  S    0.000000  -0.020430   0.141324   0.000000   0.010875
   37  O  3  S    0.000000  -0.020071   0.254869   0.000000   0.010490
   38  O  3  X    0.000000  -0.125517   0.372882   0.000000   0.174636
   39  O  3  Y    0.331922   0.000000   0.000000  -0.456533   0.000000
   40  O  3  Z    0.000000   0.312475   0.147381   0.000000  -0.424943
   41  O  3  X    0.000000  -0.083428   0.186396   0.000000   0.107052
   42  O  3  Y    0.184651   0.000000   0.000000  -0.300175   0.000000
   43  O  3  Z    0.000000   0.172059   0.089229   0.000000  -0.281401
   44  O  3 XX    0.000000   0.016176  -0.015601   0.000000  -0.007972
   45  O  3 YY    0.000000  -0.004221   0.010185   0.000000   0.000597
   46  O  3 ZZ    0.000000  -0.011955   0.005415   0.000000   0.007375
   47  O  3 XY   -0.028361   0.000000   0.000000   0.020612   0.000000
   48  O  3 XZ    0.000000  -0.020921  -0.012840   0.000000   0.020883
   49  O  3 YZ   -0.005832   0.000000   0.000000   0.003486   0.000000

                     16         17         18         19         20
                   -0.2128    -0.0910    -0.0178     0.2024     0.3483
                     A1         B2         A1         B1         B2  
    1  S  1  S    0.026814   0.000000   0.010823   0.000000   0.000000
    2  S  1  S   -0.150082   0.000000  -0.104493   0.000000   0.000000
    3  S  1  S    0.084893   0.000000  -0.015480   0.000000   0.000000
    4  S  1  S    0.950253   0.000000   0.901650   0.000000   0.000000
    5  S  1  X    0.000000   0.000000   0.000000  -0.052716   0.000000
    6  S  1  Y    0.000000  -0.212663   0.000000   0.000000   0.285298
    7  S  1  Z    0.117402   0.000000  -0.172551   0.000000   0.000000
    8  S  1  X    0.000000   0.000000   0.000000   0.164809   0.000000
    9  S  1  Y    0.000000   0.554323   0.000000   0.000000  -1.096128
   10  S  1  Z   -0.277378   0.000000   0.468858   0.000000   0.000000
   11  S  1  X    0.000000   0.000000   0.000000   2.000831   0.000000
   12  S  1  Y    0.000000   0.632887   0.000000   0.000000   1.240228
   13  S  1  Z   -0.144290   0.000000   0.744572   0.000000   0.000000
   14  S  1 XX   -0.225639   0.000000  -0.158035   0.000000   0.000000
   15  S  1 YY    0.117929   0.000000   0.129581   0.000000   0.000000
   16  S  1 ZZ    0.107710   0.000000   0.028454   0.000000   0.000000
   17  S  1 XY    0.000000   0.000000   0.000000   0.000000   0.000000
   18  S  1 XZ    0.000000   0.000000   0.000000  -0.100405   0.000000
   19  S  1 YZ    0.000000  -0.035379   0.000000   0.000000  -0.155297
   20  O  2  S    0.030475   0.000000   0.041794  -0.077079   0.000000
   21  O  2  S   -0.059292   0.000000  -0.081574   0.101943   0.000000
   22  O  2  S   -0.196102   0.000000  -0.380527   1.152764   0.000000
   23  O  2  X   -0.240553   0.000000  -0.264129  -0.003170   0.000000
   24  O  2  Y    0.000000  -0.392704   0.000000   0.000000  -0.031553
   25  O  2  Z    0.272585   0.000000  -0.271894  -0.137189   0.000000
   26  O  2  X   -0.187916   0.000000  -0.294683   0.229109   0.000000
   27  O  2  Y    0.000000  -0.382812   0.000000   0.000000  -0.074762
   28  O  2  Z    0.217434   0.000000  -0.281851  -0.225038   0.000000
   29  O  2 XX   -0.010197   0.000000  -0.007958   0.022123   0.000000
   30  O  2 YY    0.004759   0.000000   0.006495  -0.010011   0.000000
   31  O  2 ZZ    0.005437   0.000000   0.001463  -0.012112   0.000000
   32  O  2 XY    0.000000  -0.002476   0.000000   0.000000  -0.038743
   33  O  2 XZ    0.004135   0.000000   0.002670  -0.006692   0.000000
   34  O  2 YZ    0.000000  -0.001496   0.000000   0.000000   0.004103
   35  O  3  S    0.030475   0.000000   0.041794   0.077079   0.000000
   36  O  3  S   -0.059292   0.000000  -0.081574  -0.101943   0.000000
   37  O  3  S   -0.196102   0.000000  -0.380527  -1.152764   0.000000
   38  O  3  X    0.240553   0.000000   0.264129  -0.003170   0.000000
   39  O  3  Y    0.000000  -0.392704   0.000000   0.000000  -0.031553
   40  O  3  Z    0.272585   0.000000  -0.271894   0.137189   0.000000
   41  O  3  X    0.187916   0.000000   0.294683   0.229109   0.000000
   42  O  3  Y    0.000000  -0.382812   0.000000   0.000000  -0.074762
   43  O  3  Z    0.217434   0.000000  -0.281851   0.225038   0.000000
   44  O  3 XX   -0.010197   0.000000  -0.007958  -0.022123   0.000000
   45  O  3 YY    0.004759   0.000000   0.006495   0.010011   0.000000
   46  O  3 ZZ    0.005437   0.000000   0.001463   0.012112   0.000000
   47  O  3 XY    0.000000   0.002476   0.000000   0.000000   0.038743
   48  O  3 XZ   -0.004135   0.000000  -0.002670  -0.006692   0.000000
   49  O  3 YZ    0.000000  -0.001496   0.000000   0.000000   0.004103

                     21         22         23         24         25
                    0.3540     0.4322     0.5276     0.5298     0.5697
                     A1         A1         B2         A1         B1  
    1  S  1  S   -0.010588  -0.102465   0.000000  -0.013435   0.000000
    2  S  1  S   -0.041288  -0.302320   0.000000  -0.029637   0.000000
    3  S  1  S   -0.160575  -1.481299   0.000000  -0.185328   0.000000
    4  S  1  S    0.684647   2.622391   0.000000  -0.013248   0.000000
    5  S  1  X    0.000000   0.000000   0.000000   0.000000   0.172888
    6  S  1  Y    0.000000   0.000000   0.044875   0.000000   0.000000
    7  S  1  Z    0.274438  -0.064789   0.000000  -0.035411   0.000000
    8  S  1  X    0.000000   0.000000   0.000000   0.000000  -0.458644
    9  S  1  Y    0.000000   0.000000  -0.180916   0.000000   0.000000
   10  S  1  Z   -1.025616   0.306768   0.000000   0.138134   0.000000
   11  S  1  X    0.000000   0.000000   0.000000   0.000000   0.784684
   12  S  1  Y    0.000000   0.000000   0.232576   0.000000   0.000000
   13  S  1  Z    1.243166  -0.104713   0.000000  -0.237505   0.000000
   14  S  1 XX    0.276301   0.368999   0.000000  -0.008418   0.000000
   15  S  1 YY   -0.029972  -0.266191   0.000000   0.840902   0.000000
   16  S  1 ZZ   -0.246329  -0.102808   0.000000  -0.832484   0.000000
   17  S  1 XY    0.000000   0.000000   0.000000   0.000000   0.000000
   18  S  1 XZ    0.000000   0.000000   0.000000   0.000000   0.782290
   19  S  1 YZ    0.000000   0.000000   0.968796   0.000000   0.000000
   20  O  2  S    0.010848   0.022188   0.000000  -0.007639  -0.007781
   21  O  2  S    0.019938  -0.003706   0.000000   0.026387  -0.061813
   22  O  2  S   -0.401245  -0.721233   0.000000   0.077308   0.488426
   23  O  2  X    0.105475   0.236406   0.000000   0.053845  -0.290936
   24  O  2  Y    0.000000   0.000000  -0.150417   0.000000   0.000000
   25  O  2  Z   -0.039787  -0.069963   0.000000   0.144314   0.231919
   26  O  2  X   -0.184484  -0.438514   0.000000   0.085315   0.409417
   27  O  2  Y    0.000000   0.000000  -0.012433   0.000000   0.000000
   28  O  2  Z    0.004634   0.161374   0.000000  -0.009915   0.080772
   29  O  2 XX   -0.043028  -0.060935   0.000000  -0.002591   0.021622
   30  O  2 YY    0.019890   0.033896   0.000000   0.041995  -0.028962
   31  O  2 ZZ    0.023138   0.027039   0.000000  -0.039405   0.007341
   32  O  2 XY    0.000000   0.000000   0.014940   0.000000   0.000000
   33  O  2 XZ   -0.017311   0.043889   0.000000  -0.017680  -0.051221
   34  O  2 YZ    0.000000   0.000000   0.047797   0.000000   0.000000
   35  O  3  S    0.010848   0.022188   0.000000  -0.007639   0.007781
   36  O  3  S    0.019938  -0.003706   0.000000   0.026387   0.061813
   37  O  3  S   -0.401245  -0.721233   0.000000   0.077308  -0.488426
   38  O  3  X   -0.105475  -0.236406   0.000000  -0.053845  -0.290936
   39  O  3  Y    0.000000   0.000000  -0.150417   0.000000   0.000000
   40  O  3  Z   -0.039787  -0.069963   0.000000   0.144314  -0.231919
   41  O  3  X    0.184484   0.438514   0.000000  -0.085315   0.409417
   42  O  3  Y    0.000000   0.000000  -0.012433   0.000000   0.000000
   43  O  3  Z    0.004634   0.161374   0.000000  -0.009915  -0.080772
   44  O  3 XX   -0.043028  -0.060935   0.000000  -0.002591  -0.021622
   45  O  3 YY    0.019890   0.033896   0.000000   0.041995   0.028962
   46  O  3 ZZ    0.023138   0.027039   0.000000  -0.039405  -0.007341
   47  O  3 XY    0.000000   0.000000  -0.014940   0.000000   0.000000
   48  O  3 XZ    0.017311  -0.043889   0.000000   0.017680  -0.051221
   49  O  3 YZ    0.000000   0.000000   0.047797   0.000000   0.000000

                     26         27         28         29         30
                    0.6191     0.6560     0.6760     0.7187     0.7559
                     A1         B1         A2         A2         B1  
    1  S  1  S   -0.068988   0.000000   0.000000   0.000000   0.000000
    2  S  1  S   -0.306946   0.000000   0.000000   0.000000   0.000000
    3  S  1  S   -1.156952   0.000000   0.000000   0.000000   0.000000
    4  S  1  S   -0.793663   0.000000   0.000000   0.000000   0.000000
    5  S  1  X    0.000000  -0.253407   0.000000   0.000000  -0.070875
    6  S  1  Y    0.000000   0.000000   0.000000   0.000000   0.000000
    7  S  1  Z    0.065385   0.000000   0.000000   0.000000   0.000000
    8  S  1  X    0.000000   1.315035   0.000000   0.000000   0.340337
    9  S  1  Y    0.000000   0.000000   0.000000   0.000000   0.000000
   10  S  1  Z   -0.367956   0.000000   0.000000   0.000000   0.000000
   11  S  1  X    0.000000  -0.267357   0.000000   0.000000  -0.362882
   12  S  1  Y    0.000000   0.000000   0.000000   0.000000   0.000000
   13  S  1  Z   -0.022294   0.000000   0.000000   0.000000   0.000000
   14  S  1 XX   -0.428650   0.000000   0.000000   0.000000   0.000000
   15  S  1 YY    0.186330   0.000000   0.000000   0.000000   0.000000
   16  S  1 ZZ    0.242319   0.000000   0.000000   0.000000   0.000000
   17  S  1 XY    0.000000   0.000000   1.012382   0.262844   0.000000
   18  S  1 XZ    0.000000   0.010704   0.000000   0.000000   0.191524
   19  S  1 YZ    0.000000   0.000000   0.000000   0.000000   0.000000
   20  O  2  S   -0.058031  -0.049392   0.000000   0.000000  -0.000195
   21  O  2  S    0.088328   0.090872   0.000000   0.000000  -0.068798
   22  O  2  S    0.706702   0.399107   0.000000   0.000000   0.064627
   23  O  2  X   -0.260631  -0.142829   0.000000   0.000000  -0.105421
   24  O  2  Y    0.000000   0.000000   0.293662  -0.598364   0.000000
   25  O  2  Z   -0.007928   0.132633   0.000000   0.000000  -0.598893
   26  O  2  X    1.187202   1.016320   0.000000   0.000000   0.399025
   27  O  2  Y    0.000000   0.000000   0.185156   0.824749   0.000000
   28  O  2  Z   -0.273660  -0.414214   0.000000   0.000000   0.742251
   29  O  2 XX   -0.004272  -0.032277   0.000000   0.000000  -0.023981
   30  O  2 YY   -0.002029   0.024323   0.000000   0.000000   0.009988
   31  O  2 ZZ    0.006301   0.007954   0.000000   0.000000   0.013993
   32  O  2 XY    0.000000   0.000000  -0.068254  -0.023350   0.000000
   33  O  2 XZ   -0.006004   0.034630   0.000000   0.000000  -0.011687
   34  O  2 YZ    0.000000   0.000000   0.035267   0.006734   0.000000
   35  O  3  S   -0.058031   0.049392   0.000000   0.000000   0.000195
   36  O  3  S    0.088328  -0.090872   0.000000   0.000000   0.068798
   37  O  3  S    0.706702  -0.399107   0.000000   0.000000  -0.064627
   38  O  3  X    0.260631  -0.142829   0.000000   0.000000  -0.105421
   39  O  3  Y    0.000000   0.000000  -0.293662   0.598364   0.000000
   40  O  3  Z   -0.007928  -0.132633   0.000000   0.000000   0.598893
   41  O  3  X   -1.187202   1.016320   0.000000   0.000000   0.399025
   42  O  3  Y    0.000000   0.000000  -0.185156  -0.824749   0.000000
   43  O  3  Z   -0.273660   0.414214   0.000000   0.000000  -0.742251
   44  O  3 XX   -0.004272   0.032277   0.000000   0.000000   0.023981
   45  O  3 YY   -0.002029  -0.024323   0.000000   0.000000  -0.009988
   46  O  3 ZZ    0.006301  -0.007954   0.000000   0.000000  -0.013993
   47  O  3 XY    0.000000   0.000000  -0.068254  -0.023350   0.000000
   48  O  3 XZ    0.006004   0.034630   0.000000   0.000000  -0.011687
   49  O  3 YZ    0.000000   0.000000  -0.035267  -0.006734   0.000000

                     31         32         33         34         35
                    0.8487     0.8746     1.0727     1.4371     1.6591
                     A1         B2         B1         A1         A1  
    1  S  1  S    0.011086   0.000000   0.000000   0.013160   0.008070
    2  S  1  S    0.055534   0.000000   0.000000  -0.177753  -0.037793
    3  S  1  S    0.195254   0.000000   0.000000  -0.060017   0.031162
    4  S  1  S   -0.060103   0.000000   0.000000   1.777403  -1.745764
    5  S  1  X    0.000000   0.000000  -0.238363   0.000000   0.000000
    6  S  1  Y    0.000000  -0.032598   0.000000   0.000000   0.000000
    7  S  1  Z   -0.039519   0.000000   0.000000  -0.082801  -0.028447
    8  S  1  X    0.000000   0.000000   0.801692   0.000000   0.000000
    9  S  1  Y    0.000000   0.081928   0.000000   0.000000   0.000000
   10  S  1  Z    0.125518   0.000000   0.000000   0.365895   0.016255
   11  S  1  X    0.000000   0.000000   0.203862   0.000000   0.000000
   12  S  1  Y    0.000000  -0.926567   0.000000   0.000000   0.000000
   13  S  1  Z   -0.900604   0.000000   0.000000   0.299176  -0.488612
   14  S  1 XX    0.177811   0.000000   0.000000   1.239169   0.160803
   15  S  1 YY    0.062266   0.000000   0.000000  -0.699373  -0.071398
   16  S  1 ZZ   -0.240077   0.000000   0.000000  -0.539796  -0.089405
   17  S  1 XY    0.000000   0.000000   0.000000   0.000000   0.000000
   18  S  1 XZ    0.000000   0.000000   0.740999   0.000000   0.000000
   19  S  1 YZ    0.000000  -0.173472   0.000000   0.000000   0.000000
   20  O  2  S   -0.005302   0.000000  -0.035874   0.030104   0.008566
   21  O  2  S    0.094859   0.000000   0.237122   0.189703  -1.228467
   22  O  2  S   -0.072698   0.000000   0.333928  -1.364024   1.841662
   23  O  2  X   -0.204448   0.000000   0.644755  -0.559534  -0.168002
   24  O  2  Y    0.000000  -0.616858   0.000000   0.000000   0.000000
   25  O  2  Z   -0.563149   0.000000   0.004587   0.308186   0.017273
   26  O  2  X    0.171169   0.000000  -0.158999  -0.269786   0.679474
   27  O  2  Y    0.000000   1.057024   0.000000   0.000000   0.000000
   28  O  2  Z    1.016563   0.000000   0.070556  -0.057693   0.032374
   29  O  2 XX   -0.008400   0.000000  -0.086940   0.033241  -0.199300
   30  O  2 YY    0.002920   0.000000   0.003647  -0.075904   0.051681
   31  O  2 ZZ    0.005480   0.000000   0.083292   0.042663   0.147619
   32  O  2 XY    0.000000  -0.046408   0.000000   0.000000   0.000000
   33  O  2 XZ   -0.038852   0.000000  -0.061851  -0.123007  -0.088133
   34  O  2 YZ    0.000000   0.001790   0.000000   0.000000   0.000000
   35  O  3  S   -0.005302   0.000000   0.035874   0.030104   0.008566
   36  O  3  S    0.094859   0.000000  -0.237122   0.189703  -1.228467
   37  O  3  S   -0.072698   0.000000  -0.333928  -1.364024   1.841662
   38  O  3  X    0.204448   0.000000   0.644755   0.559534   0.168002
   39  O  3  Y    0.000000  -0.616858   0.000000   0.000000   0.000000
   40  O  3  Z   -0.563149   0.000000  -0.004587   0.308186   0.017273
   41  O  3  X   -0.171169   0.000000  -0.158999   0.269786  -0.679474
   42  O  3  Y    0.000000   1.057024   0.000000   0.000000   0.000000
   43  O  3  Z    1.016563   0.000000  -0.070556  -0.057693   0.032374
   44  O  3 XX   -0.008400   0.000000   0.086940   0.033241  -0.199300
   45  O  3 YY    0.002920   0.000000  -0.003647  -0.075904   0.051681
   46  O  3 ZZ    0.005480   0.000000  -0.083292   0.042663   0.147619
   47  O  3 XY    0.000000   0.046408   0.000000   0.000000   0.000000
   48  O  3 XZ    0.038852   0.000000  -0.061851   0.123007   0.088133
   49  O  3 YZ    0.000000   0.001790   0.000000   0.000000   0.000000

                     36         37         38         39         40
                    1.7681     2.0181     2.0185     2.0700     2.0888
                     B1         A2         B1         B2         A1  
    1  S  1  S    0.000000   0.000000   0.000000   0.000000   0.000995
    2  S  1  S    0.000000   0.000000   0.000000   0.000000   0.032379
    3  S  1  S    0.000000   0.000000   0.000000   0.000000   0.055214
    4  S  1  S    0.000000   0.000000   0.000000   0.000000  -0.029966
    5  S  1  X   -0.020848   0.000000  -0.001456   0.000000   0.000000
    6  S  1  Y    0.000000   0.000000   0.000000  -0.034930   0.000000
    7  S  1  Z    0.000000   0.000000   0.000000   0.000000  -0.004352
    8  S  1  X    0.367860   0.000000  -0.003211   0.000000   0.000000
    9  S  1  Y    0.000000   0.000000   0.000000   0.149624   0.000000
   10  S  1  Z    0.000000   0.000000   0.000000   0.000000   0.032051
   11  S  1  X    1.758229   0.000000   0.057723   0.000000   0.000000
   12  S  1  Y    0.000000   0.000000   0.000000   0.008677   0.000000
   13  S  1  Z    0.000000   0.000000   0.000000   0.000000  -0.013806
   14  S  1 XX    0.000000   0.000000   0.000000   0.000000  -0.120999
   15  S  1 YY    0.000000   0.000000   0.000000   0.000000   0.233720
   16  S  1 ZZ    0.000000   0.000000   0.000000   0.000000  -0.112721
   17  S  1 XY    0.000000   0.030806   0.000000   0.000000   0.000000
   18  S  1 XZ    0.159440   0.000000  -0.028089   0.000000   0.000000
   19  S  1 YZ    0.000000   0.000000   0.000000  -0.135184   0.000000
   20  O  2  S   -0.008712   0.000000  -0.000194   0.000000  -0.002237
   21  O  2  S   -1.290905   0.000000  -0.028724   0.000000   0.087671
   22  O  2  S    2.491207   0.000000   0.053791   0.000000  -0.040119
   23  O  2  X    0.098607   0.000000   0.007374   0.000000   0.060493
   24  O  2  Y    0.000000  -0.008275   0.000000   0.030504   0.000000
   25  O  2  Z    0.059714   0.000000   0.012636   0.000000  -0.015082
   26  O  2  X    0.349651   0.000000  -0.012420   0.000000  -0.045479
   27  O  2  Y    0.000000   0.016321   0.000000  -0.052210   0.000000
   28  O  2  Z   -0.319335   0.000000  -0.025021   0.000000   0.008831
   29  O  2 XX   -0.131677   0.000000  -0.106447   0.000000  -0.013215
   30  O  2 YY    0.087915   0.000000   0.616176   0.000000  -0.595576
   31  O  2 ZZ    0.043763   0.000000  -0.509730   0.000000   0.608792
   32  O  2 XY    0.000000   0.279077   0.000000  -0.087055   0.000000
   33  O  2 XZ    0.158402   0.000000  -0.258041   0.000000   0.137827
   34  O  2 YZ    0.000000   0.650138   0.000000   0.706815   0.000000
   35  O  3  S    0.008712   0.000000   0.000194   0.000000  -0.002237
   36  O  3  S    1.290905   0.000000   0.028724   0.000000   0.087671
   37  O  3  S   -2.491207   0.000000  -0.053791   0.000000  -0.040119
   38  O  3  X    0.098607   0.000000   0.007374   0.000000  -0.060493
   39  O  3  Y    0.000000   0.008275   0.000000   0.030504   0.000000
   40  O  3  Z   -0.059714   0.000000  -0.012636   0.000000  -0.015082
   41  O  3  X    0.349651   0.000000  -0.012420   0.000000   0.045479
   42  O  3  Y    0.000000  -0.016321   0.000000  -0.052210   0.000000
   43  O  3  Z    0.319335   0.000000   0.025021   0.000000   0.008831
   44  O  3 XX    0.131677   0.000000   0.106447   0.000000  -0.013215
   45  O  3 YY   -0.087915   0.000000  -0.616176   0.000000  -0.595576
   46  O  3 ZZ   -0.043763   0.000000   0.509730   0.000000   0.608792
   47  O  3 XY    0.000000   0.279077   0.000000   0.087055   0.000000
   48  O  3 XZ    0.158402   0.000000  -0.258041   0.000000  -0.137827
   49  O  3 YZ    0.000000  -0.650138   0.000000   0.706815   0.000000

                     41         42         43         44         45
                    2.2196     2.4191     2.5073     2.5863     2.9133
                     B2         A1         B1         A2         A1  
    1  S  1  S    0.000000  -0.008112   0.000000   0.000000  -0.073446
    2  S  1  S    0.000000  -0.113144   0.000000   0.000000  -0.292669
    3  S  1  S    0.000000  -0.256193   0.000000   0.000000  -1.326041
    4  S  1  S    0.000000  -0.345669   0.000000   0.000000  -1.610319
    5  S  1  X    0.000000   0.000000   0.019643   0.000000   0.000000
    6  S  1  Y    0.087449   0.000000   0.000000   0.000000   0.000000
    7  S  1  Z    0.000000   0.082568   0.000000   0.000000   0.048706
    8  S  1  X    0.000000   0.000000  -0.277509   0.000000   0.000000
    9  S  1  Y   -0.375132   0.000000   0.000000   0.000000   0.000000
   10  S  1  Z    0.000000  -0.426517   0.000000   0.000000  -0.459639
   11  S  1  X    0.000000   0.000000  -0.161335   0.000000   0.000000
   12  S  1  Y   -0.129239   0.000000   0.000000   0.000000   0.000000
   13  S  1  Z    0.000000  -0.247905   0.000000   0.000000  -0.122151
   14  S  1 XX    0.000000   0.436333   0.000000   0.000000  -1.164348
   15  S  1 YY    0.000000  -0.043420   0.000000   0.000000   0.600321
   16  S  1 ZZ    0.000000  -0.392913   0.000000   0.000000   0.564027
   17  S  1 XY    0.000000   0.000000   0.000000   0.798247   0.000000
   18  S  1 XZ    0.000000   0.000000   0.707781   0.000000   0.000000
   19  S  1 YZ   -0.246887   0.000000   0.000000   0.000000   0.000000
   20  O  2  S    0.000000  -0.002707   0.003357   0.000000  -0.046162
   21  O  2  S    0.000000  -0.450421   0.321780   0.000000  -0.450424
   22  O  2  S    0.000000   0.555943  -0.414573   0.000000   1.834514
   23  O  2  X    0.000000  -0.175347   0.108936   0.000000   0.307347
   24  O  2  Y   -0.074971   0.000000   0.000000   0.027058   0.000000
   25  O  2  Z    0.000000  -0.004731  -0.024174   0.000000  -0.118944
   26  O  2  X    0.000000   0.370786  -0.132838   0.000000   0.936621
   27  O  2  Y    0.225990   0.000000   0.000000   0.266285   0.000000
   28  O  2  Z    0.000000   0.211932   0.300834   0.000000  -0.303482
   29  O  2 XX    0.000000   0.456128   0.224299   0.000000   0.734978
   30  O  2 YY    0.000000  -0.152596   0.146403   0.000000  -0.473734
   31  O  2 ZZ    0.000000  -0.303532  -0.370701   0.000000  -0.261244
   32  O  2 XY    0.742905   0.000000   0.000000   0.762521   0.000000
   33  O  2 XZ    0.000000   0.574918   0.690129   0.000000  -0.578227
   34  O  2 YZ    0.077813   0.000000   0.000000  -0.310645   0.000000
   35  O  3  S    0.000000  -0.002707  -0.003357   0.000000  -0.046162
   36  O  3  S    0.000000  -0.450421  -0.321780   0.000000  -0.450424
   37  O  3  S    0.000000   0.555943   0.414573   0.000000   1.834514
   38  O  3  X    0.000000   0.175347   0.108936   0.000000  -0.307347
   39  O  3  Y   -0.074971   0.000000   0.000000  -0.027058   0.000000
   40  O  3  Z    0.000000  -0.004731   0.024174   0.000000  -0.118944
   41  O  3  X    0.000000  -0.370786  -0.132838   0.000000  -0.936621
   42  O  3  Y    0.225990   0.000000   0.000000  -0.266285   0.000000
   43  O  3  Z    0.000000   0.211932  -0.300834   0.000000  -0.303482
   44  O  3 XX    0.000000   0.456128  -0.224299   0.000000   0.734978
   45  O  3 YY    0.000000  -0.152596  -0.146403   0.000000  -0.473734
   46  O  3 ZZ    0.000000  -0.303532   0.370701   0.000000  -0.261244
   47  O  3 XY   -0.742905   0.000000   0.000000   0.762521   0.000000
   48  O  3 XZ    0.000000  -0.574918   0.690129   0.000000   0.578227
   49  O  3 YZ    0.077813   0.000000   0.000000   0.310645   0.000000

                     46
                    2.9800
                     B1  
    1  S  1  S    0.000000
    2  S  1  S    0.000000
    3  S  1  S    0.000000
    4  S  1  S    0.000000
    5  S  1  X   -0.221450
    6  S  1  Y    0.000000
    7  S  1  Z    0.000000
    8  S  1  X    1.847205
    9  S  1  Y    0.000000
   10  S  1  Z    0.000000
   11  S  1  X    0.467912
   12  S  1  Y    0.000000
   13  S  1  Z    0.000000
   14  S  1 XX    0.000000
   15  S  1 YY    0.000000
   16  S  1 ZZ    0.000000
   17  S  1 XY    0.000000
   18  S  1 XZ    0.564579
   19  S  1 YZ    0.000000
   20  O  2  S   -0.044586
   21  O  2  S   -0.516462
   22  O  2  S    1.666693
   23  O  2  X    0.232591
   24  O  2  Y    0.000000
   25  O  2  Z   -0.022037
   26  O  2  X    0.868550
   27  O  2  Y    0.000000
   28  O  2  Z   -0.197272
   29  O  2 XX    0.876148
   30  O  2 YY   -0.415297
   31  O  2 ZZ   -0.460850
   32  O  2 XY    0.000000
   33  O  2 XZ   -0.246006
   34  O  2 YZ    0.000000
   35  O  3  S    0.044586
   36  O  3  S    0.516462
   37  O  3  S   -1.666693
   38  O  3  X    0.232591
   39  O  3  Y    0.000000
   40  O  3  Z    0.022037
   41  O  3  X    0.868550
   42  O  3  Y    0.000000
   43  O  3  Z    0.197272
   44  O  3 XX   -0.876148
   45  O  3 YY    0.415297
   46  O  3 ZZ    0.460850
   47  O  3 XY    0.000000
   48  O  3 XZ   -0.246006
   49  O  3 YZ    0.000000
 ...... END OF RHF CALCULATION ......
 STEP CPU TIME =     4.60 TOTAL CPU TIME =        4.8 (    0.1 MIN)
 TOTAL WALL CLOCK TIME=        4.8 SECONDS, CPU UTILIZATION IS  99.79%

     ---------------------------------------------------------------------
     PROPERTIES FOR THE PBE      DFT FUNCTIONAL (RHF  TYPE) DENSITY MATRIX
     ---------------------------------------------------------------------

          -----------------
          ENERGY COMPONENTS
          -----------------

         WAVEFUNCTION NORMALIZATION =       1.0000000000

                ONE ELECTRON ENERGY =    -988.8400320690
                TWO ELECTRON ENERGY =     323.0411202628
           NUCLEAR REPULSION ENERGY =     117.6926177298
                                      ------------------
                       TOTAL ENERGY =    -548.1062940765

 ELECTRON-ELECTRON POTENTIAL ENERGY =     323.0411202628
  NUCLEUS-ELECTRON POTENTIAL ENERGY =   -1537.8442910768
   NUCLEUS-NUCLEUS POTENTIAL ENERGY =     117.6926177298
                                      ------------------
             TOTAL POTENTIAL ENERGY =   -1097.1105530843
               TOTAL KINETIC ENERGY =     549.0042590078
                 VIRIAL RATIO (V/T) =       1.9983643753

          ---------------------------------------
          MULLIKEN AND LOWDIN POPULATION ANALYSES
          ---------------------------------------

     ATOMIC MULLIKEN POPULATION IN EACH MOLECULAR ORBITAL

                      1          2          3          4          5

                  2.000000   2.000000   2.000000   2.000000   2.000000

    1             2.000076   0.002009   0.001170   2.003766   1.998896
    2            -0.000038   0.998995   0.999415  -0.001883   0.000552
    3            -0.000038   0.998995   0.999415  -0.001883   0.000552

                      6          7          8          9         10

                  2.000000   2.000000   2.000000   2.000000   2.000000

    1             1.999950   1.999825   0.741164   0.493229   0.485206
    2             0.000025   0.000087   0.629418   0.753385   0.757397
    3             0.000025   0.000087   0.629418   0.753385   0.757397

                     11         12         13         14         15

                  2.000000   2.000000   2.000000   2.000000   2.000000

    1             0.900854   0.867268   0.271972   0.188107   0.186404
    2             0.549573   0.566366   0.864014   0.905946   0.906798
    3             0.549573   0.566366   0.864014   0.905946   0.906798

                     16

                  2.000000

    1             1.360649
    2             0.319675
    3             0.319675

               ----- POPULATIONS IN EACH AO -----
                             MULLIKEN      LOWDIN
              1  S  1  S      2.00026     1.99571
              2  S  1  S      2.01083     1.94755
              3  S  1  S      0.87846     0.52423
              4  S  1  S      1.11811     0.62795
              5  S  1  X      1.99713     1.95827
              6  S  1  Y      1.99610     1.95386
              7  S  1  Z      1.99688     1.96068
              8  S  1  X      0.72330     0.62255
              9  S  1  Y      0.62933     0.57579
             10  S  1  Z      0.78131     0.74388
             11  S  1  X      0.03319     0.23948
             12  S  1  Y      0.26412     0.33855
             13  S  1  Z      0.28691     0.38834
             14  S  1 XX      0.11275     0.41347
             15  S  1 YY      0.27362     0.30694
             16  S  1 ZZ      0.18811     0.31995
             17  S  1 XY      0.19889     0.23416
             18  S  1 XZ      0.01126     0.24328
             19  S  1 YZ      0.00000     0.01099
             20  O  2  S      1.99807     1.98023
             21  O  2  S      0.82809     0.63911
             22  O  2  S      0.93927     0.51453
             23  O  2  X      1.00422     0.96476
             24  O  2  Y      0.89815     0.84768
             25  O  2  Z      1.05229     1.01184
             26  O  2  X      0.37446     0.51794
             27  O  2  Y      0.54682     0.58219
             28  O  2  Z      0.57722     0.61926
             29  O  2 XX      0.00356     0.21219
             30  O  2 YY      0.00786     0.19062
             31  O  2 ZZ      0.01010     0.18850
             32  O  2 XY      0.00913     0.01282
             33  O  2 XZ      0.00047     0.01488
             34  O  2 YZ      0.00000     0.00064
             35  O  3  S      1.99807     1.98023
             36  O  3  S      0.82809     0.63911
             37  O  3  S      0.93927     0.51453
             38  O  3  X      1.00422     0.96476
             39  O  3  Y      0.89815     0.84768
             40  O  3  Z      1.05229     1.01184
             41  O  3  X      0.37446     0.51794
             42  O  3  Y      0.54682     0.58219
             43  O  3  Z      0.57722     0.61926
             44  O  3 XX      0.00356     0.21219
             45  O  3 YY      0.00786     0.19062
             46  O  3 ZZ      0.01010     0.18850
             47  O  3 XY      0.00913     0.01282
             48  O  3 XZ      0.00047     0.01488
             49  O  3 YZ      0.00000     0.00064

          ----- MULLIKEN ATOMIC OVERLAP POPULATIONS -----
          (OFF-DIAGONAL ELEMENTS NEED TO BE MULTIPLIED BY 2)

             1           2           3

    1   15.0714811
    2    0.2145326   8.0113381
    3    0.2145326   0.0238562   8.0113381

          TOTAL MULLIKEN AND LOWDIN ATOMIC POPULATIONS
       ATOM         MULL.POP.    CHARGE          LOW.POP.     CHARGE
    1 S            15.500546    0.499454        15.405626    0.594374
    2 O             8.249727   -0.249727         8.297187   -0.297187
    3 O             8.249727   -0.249727         8.297187   -0.297187

          MULLIKEN SPHERICAL HARMONIC POPULATIONS
       ATOM           S       P       D      F      G      H      I    TOTAL
    1 S             6.01    8.71    0.78   0.00   0.00   0.00   0.00   15.50
    2 O             3.77    4.45    0.03   0.00   0.00   0.00   0.00    8.25
    3 O             3.77    4.45    0.03   0.00   0.00   0.00   0.00    8.25

          -------------------------------
          BOND ORDER AND VALENCE ANALYSIS     BOND ORDER THRESHOLD=0.050
          -------------------------------

                   BOND                       BOND                       BOND
  ATOM PAIR DIST  ORDER      ATOM PAIR DIST  ORDER      ATOM PAIR DIST  ORDER
    1   2  1.300  2.001        1   3  1.300  2.001        2   3  2.511  0.175

                       TOTAL       BONDED        FREE
      ATOM            VALENCE     VALENCE     VALENCE
    1 S                 4.002       4.002       0.000
    2 O                 2.176       2.176       0.000
    3 O                 2.176       2.176       0.000

          ---------------------
          ELECTROSTATIC MOMENTS
          ---------------------

 POINT   1           X           Y           Z (BOHR)    CHARGE
                 0.000000    0.000000    0.000000        0.00 (A.U.)
         DX          DY          DZ         /D/  (DEBYE)
     0.000000    0.000000    0.190744    0.190744
 ...... END OF PROPERTY EVALUATION ......
 STEP CPU TIME =     0.00 TOTAL CPU TIME =        4.8 (    0.1 MIN)
 TOTAL WALL CLOCK TIME=        4.8 SECONDS, CPU UTILIZATION IS  99.79%
               580000  WORDS OF DYNAMIC MEMORY USED
 EXECUTION OF GAMESS TERMINATED NORMALLY Thu Feb 26 00:14:43 2015
 DDI: 263624 bytes (0.3 MB / 0 MWords) used by master data server.

 ----------------------------------------
 CPU timing information for all processes
 ========================================
 0: 4.769 + 0.26 = 4.796
 ----------------------------------------
 ddikick.x: exited gracefully.
----- accounting info -----
Files used on the master node dftfe.crc.nd.edu were:
-rw-r--r-- 1 pmehta1 campus   37475 Feb 26 00:14 /tmp/gamess.dat
-rw-r--r-- 1 pmehta1 campus     142 Feb 26 00:14 /tmp/gamess.F05
-rw-r--r-- 1 pmehta1 campus 2160288 Feb 26 00:14 /tmp/gamess.F08
-rw-r--r-- 1 pmehta1 campus 1220440 Feb 26 00:14 /tmp/gamess.F10
Thu Feb 26 00:14:46 EST 2015
0.249u 0.173s 0:08.22 4.9%	0+0k 0+104io 0pf+0w
