   1   1   1   0
  0.1510406E+02  0.2774616E-09  0.2774616E-09  0.2774616E-09  0.3500000E-15
   1.0000000000000000E-004
  CAR 
 Au, FCC                                 
     26.04139079     -5.56107978  301      4.89402982      1.00000000
     -5.561  0.0000E+00  0.0000E+00  0.0000E+00  0.0000E+00  0.0000E+00  0.0000E+00  0.0000E+00  0.0000E+00  0.0000E+00
     -5.456  0.0000E+00  0.0000E+00  0.0000E+00  0.0000E+00  0.0000E+00  0.0000E+00  0.0000E+00  0.0000E+00  0.0000E+00
     -5.350  0.0000E+00  0.0000E+00  0.0000E+00  0.0000E+00  0.0000E+00  0.0000E+00  0.0000E+00  0.0000E+00  0.0000E+00
     -5.245  0.0000E+00  0.0000E+00  0.0000E+00  0.0000E+00  0.0000E+00  0.0000E+00  0.0000E+00  0.0000E+00  0.0000E+00
     -5.140  0.0000E+00  0.0000E+00  0.0000E+00  0.0000E+00  0.0000E+00  0.0000E+00  0.0000E+00  0.0000E+00  0.0000E+00
     -5.034  0.0000E+00  0.0000E+00  0.0000E+00  0.0000E+00  0.0000E+00  0.0000E+00  0.0000E+00  0.0000E+00  0.0000E+00
     -4.929  0.0000E+00  0.0000E+00  0.0000E+00  0.0000E+00  0.0000E+00  0.0000E+00  0.0000E+00  0.0000E+00  0.0000E+00
     -4.824  0.0000E+00  0.0000E+00  0.0000E+00  0.0000E+00  0.0000E+00  0.0000E+00  0.0000E+00  0.0000E+00  0.0000E+00
     -4.718  0.0000E+00  0.0000E+00  0.0000E+00  0.0000E+00  0.0000E+00  0.0000E+00  0.0000E+00  0.0000E+00  0.0000E+00
     -4.613  0.1062E-12  0.3176E-15  0.3176E-15  0.3176E-15  0.1380E-16  0.1380E-16  0.1113E-28  0.1380E-16  0.3250E-28
     -4.508  0.1298E-08  0.3883E-11  0.3883E-11  0.3883E-11  0.1687E-12  0.1687E-12  0.1361E-24  0.1687E-12  0.3974E-24
     -4.402  0.1840E-05  0.5504E-08  0.5504E-08  0.5504E-08  0.2392E-09  0.2392E-09  0.1929E-21  0.2392E-09  0.5633E-21
     -4.297  0.3152E-03  0.9430E-06  0.9430E-06  0.9430E-06  0.4097E-07  0.4097E-07  0.1112E-16  0.4097E-07  0.3335E-16
     -4.192  0.7045E-02  0.2107E-04  0.2107E-04  0.2107E-04  0.9156E-06  0.9156E-06  0.2186E-12  0.9156E-06  0.6559E-12
     -4.086  0.2293E-01  0.6861E-04  0.6861E-04  0.6864E-04  0.2982E-05  0.2981E-05  0.4969E-09  0.2982E-05  0.1491E-08
     -3.981  0.1206E-01  0.3605E-04  0.3605E-04  0.4463E-04  0.1967E-05  0.1588E-05  0.1349E-06  0.1967E-05  0.4047E-06
     -3.876  0.1320E-01  0.3814E-04  0.3814E-04  0.3359E-03  0.1557E-04  0.2420E-05  0.4681E-05  0.1557E-04  0.1404E-04
     -3.770  0.6064E-01  0.1749E-03  0.1749E-03  0.1643E-02  0.7618E-04  0.1137E-04  0.2308E-04  0.7618E-04  0.6923E-04
     -3.665  0.4682E-01  0.1415E-03  0.1415E-03  0.1262E-02  0.5898E-04  0.1211E-04  0.1781E-04  0.5898E-04  0.5342E-04
     -3.560  0.1608E-01  0.2930E-03  0.2930E-03  0.1763E-03  0.2617E-04  0.1300E-03  0.5541E-05  0.2617E-04  0.1662E-04
     -3.454  0.5713E-01  0.1490E-02  0.1490E-02  0.1548E-03  0.1039E-03  0.6929E-03  0.1864E-04  0.1039E-03  0.5590E-04
     -3.349  0.4806E-01  0.1250E-02  0.1264E-02  0.1343E-03  0.9154E-04  0.5838E-03  0.1901E-04  0.9218E-04  0.4657E-04
     -3.244  0.2060E-01  0.3331E-03  0.9346E-03  0.1902E-03  0.1254E-03  0.2173E-03  0.1584E-03  0.1543E-03  0.5962E-05
     -3.138  0.7254E-01  0.6437E-03  0.4424E-02  0.6415E-03  0.3881E-03  0.5709E-03  0.9830E-03  0.5698E-03  0.1597E-06
     -3.033  0.6235E-01  0.4294E-03  0.4072E-02  0.4986E-03  0.2648E-03  0.3928E-03  0.9637E-03  0.3955E-03  0.1010E-04
     -2.928  0.4253E-01  0.8708E-03  0.6675E-03  0.2546E-02  0.1335E-02  0.1796E-03  0.3520E-03  0.2443E-03  0.2444E-03
     -2.822  0.1206E+00  0.2924E-02  0.2886E-03  0.8828E-02  0.4649E-02  0.4924E-03  0.7370E-03  0.7276E-03  0.8605E-03
     -2.717  0.7908E-01  0.1864E-02  0.4078E-03  0.5718E-02  0.3279E-02  0.7552E-03  0.4288E-03  0.1121E-02  0.5485E-03
     -2.612  0.5989E-01  0.1217E-02  0.1097E-02  0.4055E-02  0.3268E-02  0.2078E-02  0.1396E-03  0.3090E-02  0.3576E-03
     -2.506  0.3617E-01  0.7473E-03  0.7647E-03  0.2382E-02  0.1999E-02  0.1414E-02  0.8841E-04  0.1998E-02  0.2121E-03
     -2.401  0.2576E-01  0.1156E-02  0.2074E-02  0.2819E-03  0.5209E-03  0.2254E-02  0.9015E-03  0.5661E-03  0.1371E-03
     -2.295  0.1164E+00  0.4837E-02  0.1110E-01  0.4039E-03  0.2956E-02  0.1056E-01  0.5997E-02  0.3265E-02  0.4771E-03
     -2.190  0.1337E+00  0.5148E-02  0.1244E-01  0.7889E-03  0.6688E-02  0.1397E-01  0.6898E-02  0.7009E-02  0.4085E-03
     -2.085  0.1050E+00  0.3090E-02  0.1202E-01  0.6897E-03  0.6385E-02  0.1259E-01  0.7962E-02  0.6418E-02  0.1091E-03
     -1.979  0.1415E+00  0.3108E-02  0.1838E-01  0.9775E-03  0.9296E-02  0.1687E-01  0.1293E-01  0.9372E-02  0.3723E-04
     -1.874  0.9646E-01  0.1686E-02  0.9965E-02  0.2050E-02  0.2111E-01  0.2354E-01  0.6480E-02  0.2053E-01  0.2170E-03
     -1.769  0.1388E+00  0.3392E-02  0.2868E-02  0.8777E-02  0.7549E-01  0.7423E-01  0.2154E-02  0.6662E-01  0.1586E-02
     -1.663  0.2038E+00  0.7371E-02  0.2080E-02  0.1747E-01  0.1062E+00  0.9002E-01  0.8071E-02  0.7825E-01  0.3670E-02
     -1.558  0.1943E+00  0.6968E-02  0.8198E-02  0.1531E-01  0.1007E+00  0.8224E-01  0.6633E-01  0.6399E-01  0.3474E-02
     -1.453  0.1754E+00  0.4172E-02  0.1470E-01  0.5969E-02  0.1172E+00  0.1194E+00  0.1690E+00  0.8917E-01  0.2300E-02
     -1.347  0.1745E+00  0.3973E-02  0.2238E-01  0.5850E-02  0.1083E+00  0.8948E-01  0.2914E+00  0.5612E-01  0.8943E-02
     -1.242  0.2440E+00  0.6767E-02  0.3242E-01  0.9746E-02  0.2972E+00  0.1432E+00  0.4383E+00  0.7730E-01  0.1280E-01
     -1.137  0.2199E+00  0.9624E-02  0.2449E-01  0.1024E-01  0.4712E+00  0.1962E+00  0.4252E+00  0.9230E-01  0.8803E-02
     -1.031  0.1774E+00  0.9637E-02  0.2746E-01  0.7385E-02  0.5737E+00  0.1468E+00  0.3770E+00  0.5912E-01  0.5242E-02
     -0.926  0.1635E+00  0.1085E-01  0.2801E-01  0.8626E-02  0.8239E+00  0.1332E+00  0.4756E+00  0.5538E-01  0.9778E-02
     -0.821  0.1310E+00  0.1040E-01  0.1759E-01  0.1441E-01  0.8080E+00  0.1864E+00  0.4275E+00  0.6200E-01  0.4311E-01
     -0.715  0.1103E+00  0.1322E-01  0.8009E-02  0.2478E-01  0.6010E+00  0.1916E+00  0.2320E+00  0.3953E-01  0.8238E-01
     -0.610  0.8331E-01  0.1598E-01  0.6887E-02  0.2528E-01  0.7033E+00  0.2337E+00  0.2742E+00  0.2840E-01  0.9169E-01
     -0.505  0.5136E-01  0.1680E-01  0.7274E-02  0.1717E-01  0.6169E+00  0.2368E+00  0.3703E+00  0.2218E-01  0.1206E+00
     -0.399  0.3580E-01  0.1952E-01  0.1084E-01  0.1704E-01  0.5086E+00  0.1853E+00  0.3198E+00  0.2283E-01  0.1127E+00
     -0.294  0.2734E-01  0.1858E-01  0.1244E-01  0.1653E-01  0.3787E+00  0.2105E+00  0.2753E+00  0.2293E-01  0.8450E-01
     -0.189  0.1378E-01  0.1612E-01  0.1431E-01  0.1767E-01  0.5116E+00  0.2129E+00  0.2375E+00  0.3003E-01  0.7112E-01
     -0.083  0.2043E-01  0.2752E-01  0.2585E-01  0.2355E-01  0.6628E+00  0.3741E+00  0.4028E+00  0.5800E-01  0.1540E+00
      0.022  0.1497E-01  0.3211E-01  0.1782E-01  0.1939E-01  0.2970E+00  0.3911E+00  0.6656E+00  0.9347E-01  0.1485E+00
      0.127  0.1888E-01  0.2474E-01  0.1766E-01  0.2122E-01  0.3900E+00  0.4502E+00  0.5511E+00  0.1979E+00  0.1359E+00
      0.233  0.2264E-01  0.1506E-01  0.1977E-01  0.2220E-01  0.4779E+00  0.4465E+00  0.3512E+00  0.2218E+00  0.1930E+00
      0.338  0.2499E-01  0.1676E-01  0.1246E-01  0.2343E-01  0.4071E+00  0.3753E+00  0.4915E+00  0.1401E+00  0.1838E+00
      0.443  0.3879E-01  0.1898E-01  0.1828E-01  0.2663E-01  0.4464E+00  0.5295E+00  0.6256E+00  0.1639E+00  0.2076E+00
      0.549  0.5818E-01  0.1613E-01  0.4440E-01  0.4049E-01  0.6218E+00  0.7463E+00  0.3583E+00  0.2104E+00  0.2622E+00
      0.654  0.4353E-01  0.1537E-01  0.4241E-01  0.3476E-01  0.6302E+00  0.6092E+00  0.3622E+00  0.2435E+00  0.3628E+00
      0.759  0.3311E-01  0.1419E-01  0.2567E-01  0.1916E-01  0.5868E+00  0.4410E+00  0.5825E+00  0.3400E+00  0.3490E+00
      0.865  0.2902E-01  0.1454E-01  0.2866E-01  0.1598E-01  0.5539E+00  0.6177E+00  0.5917E+00  0.4576E+00  0.3688E+00
      0.970  0.4996E-01  0.2127E-01  0.6348E-01  0.2748E-01  0.5630E+00  0.7754E+00  0.4000E+00  0.6169E+00  0.4355E+00
      1.075  0.4857E-01  0.2103E-01  0.5314E-01  0.2762E-01  0.3281E+00  0.6305E+00  0.2940E+00  0.6596E+00  0.3735E+00
      1.181  0.4719E-01  0.1498E-01  0.4332E-01  0.1864E-01  0.1828E+00  0.4587E+00  0.3409E+00  0.3991E+00  0.2966E+00
      1.286  0.4151E-01  0.1393E-01  0.5167E-01  0.1543E-01  0.1535E+00  0.4613E+00  0.2896E+00  0.3528E+00  0.3331E+00
      1.391  0.2184E-01  0.1349E-01  0.4004E-01  0.1488E-01  0.1308E+00  0.4188E+00  0.1931E+00  0.4335E+00  0.4518E+00
      1.497  0.1349E-01  0.1265E-01  0.2980E-01  0.1436E-01  0.1465E+00  0.2524E+00  0.2696E+00  0.3483E+00  0.5369E+00
      1.602  0.1091E-01  0.4996E-02  0.1567E-01  0.6879E-02  0.6928E-01  0.1193E+00  0.2847E+00  0.2647E+00  0.6053E+00
      1.707  0.1289E-01  0.3705E-02  0.1239E-01  0.7987E-02  0.5328E-01  0.1427E+00  0.2889E+00  0.3494E+00  0.8558E+00
      1.813  0.2853E-01  0.1105E-01  0.3622E-01  0.1455E-01  0.8995E-01  0.3663E+00  0.4264E+00  0.4771E+00  0.9800E+00
      1.918  0.4215E-01  0.1858E-01  0.5206E-01  0.1995E-01  0.1187E+00  0.4128E+00  0.5596E+00  0.4169E+00  0.1010E+01
      2.024  0.2680E-01  0.1298E-01  0.2573E-01  0.1690E-01  0.8131E-01  0.1482E+00  0.4785E+00  0.2442E+00  0.7849E+00
      2.129  0.1244E-01  0.6995E-02  0.9890E-02  0.1121E-01  0.4128E-01  0.9210E-01  0.2576E+00  0.2867E+00  0.6048E+00
      2.234  0.1795E-01  0.5095E-02  0.2256E-01  0.7817E-02  0.1016E+00  0.2600E+00  0.2905E+00  0.5740E+00  0.8485E+00
      2.340  0.2482E-01  0.5864E-02  0.3027E-01  0.6688E-02  0.1557E+00  0.3066E+00  0.3632E+00  0.5409E+00  0.8982E+00
      2.445  0.1109E-01  0.3700E-02  0.1118E-01  0.3505E-02  0.6242E-01  0.1419E+00  0.1297E+00  0.2408E+00  0.5831E+00
      2.550  0.6394E-02  0.5216E-02  0.8810E-02  0.5333E-02  0.5061E-01  0.2110E+00  0.7715E-01  0.3642E+00  0.5507E+00
      2.656  0.1224E-01  0.5624E-02  0.1625E-01  0.6420E-02  0.1180E+00  0.3415E+00  0.1455E+00  0.8025E+00  0.8546E+00
      2.761  0.1039E-01  0.3261E-02  0.1195E-01  0.4918E-02  0.1533E+00  0.1957E+00  0.1515E+00  0.6812E+00  0.7562E+00
      2.866  0.1093E-01  0.2652E-02  0.6792E-02  0.6226E-02  0.1848E+00  0.1586E+00  0.1633E+00  0.7459E+00  0.6221E+00
      2.972  0.1212E-01  0.2549E-02  0.5955E-02  0.5917E-02  0.2439E+00  0.2917E+00  0.2221E+00  0.1314E+01  0.6283E+00
      3.077  0.3490E-01  0.5356E-02  0.1567E-01  0.9335E-02  0.2999E+00  0.5302E+00  0.2783E+00  0.1659E+01  0.6124E+00
      3.182  0.5543E-01  0.6851E-02  0.2002E-01  0.1251E-01  0.2383E+00  0.4345E+00  0.2364E+00  0.9578E+00  0.3709E+00
      3.288  0.2176E-01  0.2664E-02  0.6155E-02  0.6152E-02  0.8614E-01  0.1735E+00  0.7793E-01  0.8344E+00  0.8717E-01
      3.393  0.3198E-02  0.1574E-02  0.1800E-02  0.1917E-02  0.7728E-02  0.6529E-01  0.6175E-02  0.4022E+00  0.1187E-01
      3.498  0.1019E-01  0.7542E-02  0.7550E-02  0.6300E-02  0.1763E-02  0.4190E-01  0.5526E-02  0.3570E-01  0.1704E-01
      3.604  0.1152E-01  0.7280E-02  0.7283E-02  0.5529E-02  0.1198E-02  0.4788E-01  0.7551E-02  0.1606E-02  0.2263E-01
      3.709  0.1092E-01  0.3381E-02  0.3746E-02  0.1406E-02  0.2585E-03  0.5081E-01  0.9072E-02  0.4150E-03  0.2391E-01
      3.814  0.4108E-01  0.7906E-02  0.1377E-01  0.2007E-02  0.1110E-02  0.1729E+00  0.3972E-01  0.3485E-02  0.6746E-01
      3.920  0.7568E-01  0.1177E-01  0.2926E-01  0.3031E-02  0.2434E-02  0.2925E+00  0.7720E-01  0.9323E-02  0.9560E-01
      4.025  0.6087E-01  0.7417E-02  0.3230E-01  0.2943E-02  0.2065E-02  0.1874E+00  0.6118E-01  0.1716E-01  0.4049E-01
      4.130  0.3823E-01  0.5637E-02  0.2362E-01  0.4215E-02  0.2671E-02  0.8800E-01  0.4241E-01  0.2518E-01  0.9112E-02
      4.236  0.7911E-02  0.1629E-02  0.4918E-02  0.1489E-02  0.9420E-03  0.1468E-01  0.1013E-01  0.8328E-02  0.8331E-03
      4.341  0.2988E-02  0.2678E-03  0.1950E-02  0.2658E-03  0.1183E-03  0.3649E-02  0.2822E-02  0.3555E-02  0.1223E-04
      4.446  0.1814E-01  0.1150E-02  0.1327E-01  0.1153E-02  0.4698E-03  0.1992E-01  0.1559E-01  0.1992E-01  0.1064E-05
      4.552  0.3376E-01  0.1742E-02  0.3168E-01  0.2087E-02  0.6811E-02  0.2546E-01  0.2633E-01  0.2553E-01  0.1496E-03
      4.657  0.6212E-01  0.1094E-01  0.3116E-01  0.1676E-01  0.9912E-01  0.1193E-01  0.5887E-01  0.1367E-01  0.3508E-02
      4.762  0.1091E+00  0.3819E-01  0.2986E-01  0.5506E-01  0.2484E+00  0.5972E-02  0.1174E+00  0.1302E-01  0.1542E-01
      4.868  0.5747E-01  0.2888E-01  0.2312E-01  0.4205E-01  0.1297E+00  0.4674E-02  0.5807E-01  0.1035E-01  0.1512E-01
      4.973  0.4668E-01  0.7572E-02  0.4103E-02  0.2554E-01  0.9212E-01  0.9361E-03  0.3081E-01  0.3546E-02  0.9964E-02
      5.078  0.3003E-01  0.2612E-02  0.1269E-02  0.1379E-01  0.5527E-01  0.2485E-02  0.1880E-01  0.2008E-02  0.5348E-02
      5.184  0.2468E-01  0.2895E-02  0.1236E-01  0.3086E-02  0.5845E-02  0.3207E-01  0.1679E-01  0.8734E-02  0.2109E-02
      5.289  0.4402E-01  0.5322E-02  0.2510E-01  0.3459E-02  0.6981E-03  0.6448E-01  0.3020E-01  0.1720E-01  0.3182E-02
      5.394  0.2570E-01  0.2038E-02  0.2065E-01  0.1144E-02  0.2004E-03  0.3531E-01  0.1581E-01  0.7115E-02  0.1216E-02
      5.500  0.4623E-01  0.1847E-02  0.4712E-01  0.3272E-03  0.3627E-04  0.5887E-01  0.2380E-01  0.6549E-02  0.1616E-02
      5.605  0.4671E-01  0.5263E-02  0.3047E-01  0.1154E-02  0.4176E-03  0.6063E-01  0.1557E-01  0.3935E-02  0.8300E-02
      5.710  0.5323E-01  0.1669E-01  0.1927E-01  0.1283E-01  0.6604E-02  0.6832E-01  0.9572E-02  0.6934E-02  0.2390E-01
      5.816  0.8477E-01  0.2895E-01  0.3562E-01  0.2920E-01  0.1708E-01  0.9983E-01  0.2040E-01  0.1757E-01  0.3839E-01
      5.921  0.8215E-01  0.1478E-01  0.2957E-01  0.1116E-01  0.6990E-02  0.9668E-01  0.2318E-01  0.8351E-02  0.1946E-01
      6.026  0.3942E-01  0.4251E-02  0.1947E-01  0.1875E-02  0.4421E-03  0.4293E-01  0.1430E-01  0.7676E-02  0.4027E-02
      6.132  0.7323E-01  0.8754E-02  0.5749E-01  0.5231E-02  0.8280E-04  0.7307E-01  0.3171E-01  0.2407E-01  0.4741E-02
      6.237  0.5577E-01  0.6851E-02  0.7751E-01  0.4071E-02  0.8511E-04  0.5604E-01  0.2391E-01  0.1723E-01  0.3752E-02
      6.343  0.1469E-01  0.4764E-02  0.3840E-01  0.4346E-02  0.9239E-03  0.1684E-01  0.1018E-01  0.5223E-02  0.1050E-02
      6.448  0.4445E-01  0.1963E-01  0.5284E-01  0.1860E-01  0.4391E-02  0.5962E-01  0.3659E-01  0.8746E-02  0.3051E-02
      6.553  0.6712E-01  0.1601E-01  0.6104E-01  0.1404E-01  0.3370E-02  0.7902E-01  0.3997E-01  0.8059E-02  0.2696E-02
      6.659  0.2554E-01  0.3080E-02  0.1395E-01  0.3212E-02  0.5750E-02  0.1937E-01  0.9267E-02  0.1487E-02  0.6148E-03
      6.764  0.6198E-01  0.6765E-02  0.1115E-02  0.1242E-01  0.4232E-01  0.1116E-02  0.7537E-02  0.6502E-03  0.1446E-02
      6.869  0.8484E-01  0.8664E-02  0.7588E-02  0.1530E-01  0.5107E-01  0.8490E-02  0.1277E-01  0.4044E-02  0.1759E-02
      6.975  0.6878E-01  0.4531E-02  0.3489E-01  0.4895E-02  0.1052E-01  0.4001E-01  0.2176E-01  0.1651E-01  0.5076E-03
      7.080  0.6808E-01  0.7066E-02  0.5056E-01  0.9105E-02  0.1798E-01  0.3894E-01  0.2114E-01  0.1445E-01  0.9335E-03
      7.185  0.8925E-01  0.1445E-01  0.9528E-01  0.2236E-01  0.5048E-01  0.3896E-01  0.2170E-01  0.9253E-02  0.2388E-02
      7.291  0.5323E-01  0.6901E-02  0.5260E-01  0.1444E-01  0.3001E-01  0.2066E-01  0.1070E-01  0.4411E-02  0.2791E-02
      7.396  0.7385E-01  0.3392E-02  0.4651E-02  0.2595E-01  0.4342E-01  0.1917E-02  0.4867E-02  0.1850E-02  0.9741E-02
      7.501  0.6096E-01  0.2554E-02  0.2100E-03  0.2171E-01  0.3598E-01  0.1681E-03  0.3564E-02  0.1350E-02  0.8296E-02
      7.607  0.1329E-01  0.6168E-03  0.2033E-02  0.3151E-02  0.4926E-02  0.2039E-02  0.1664E-02  0.2060E-02  0.1128E-02
      7.712  0.5532E-01  0.3257E-02  0.1466E-01  0.4693E-02  0.5934E-02  0.1697E-01  0.8052E-02  0.1380E-01  0.1494E-02
      7.817  0.1662E+00  0.9530E-02  0.3178E-01  0.2098E-01  0.3359E-01  0.3688E-01  0.1146E-01  0.2738E-01  0.8664E-02
      7.923  0.1703E+00  0.7347E-02  0.4486E-01  0.2018E-01  0.4257E-01  0.3808E-01  0.8190E-02  0.3495E-01  0.8186E-02
      8.028  0.2021E+00  0.7492E-02  0.2258E-01  0.1393E-01  0.5433E-01  0.4295E-01  0.4103E-02  0.4640E-01  0.2812E-02
      8.133  0.2345E+00  0.9738E-02  0.1815E-01  0.1264E-01  0.4681E-01  0.4910E-01  0.5996E-02  0.3430E-01  0.2407E-02
      8.239  0.1371E+00  0.5088E-02  0.3718E-01  0.2464E-02  0.9233E-02  0.4397E-01  0.8924E-02  0.7523E-02  0.1133E-02
      8.344  0.7500E-01  0.4390E-02  0.7044E-01  0.3586E-02  0.5700E-02  0.4490E-01  0.1338E-01  0.2801E-02  0.4064E-03
      8.449  0.5560E-01  0.1195E-01  0.4037E-01  0.1190E-01  0.1746E-01  0.2029E-01  0.1054E-01  0.1840E-02  0.1714E-03
      8.555  0.9301E-01  0.9904E-02  0.2816E-01  0.1038E-01  0.1375E-01  0.1960E-01  0.1213E-01  0.1018E-01  0.5149E-03
      8.660  0.1674E+00  0.1214E-01  0.5385E-01  0.1238E-01  0.9756E-02  0.4600E-01  0.2498E-01  0.2585E-01  0.9592E-03
      8.765  0.6144E-01  0.5910E-02  0.2273E-01  0.5673E-02  0.2853E-02  0.2012E-01  0.1124E-01  0.1143E-01  0.3298E-03
      8.871  0.3654E-01  0.4998E-02  0.1197E-01  0.5757E-02  0.3194E-02  0.1176E-01  0.5203E-02  0.3487E-02  0.1332E-02
      8.976  0.1719E+00  0.2186E-01  0.5354E-01  0.2520E-01  0.1240E-01  0.5220E-01  0.2267E-01  0.1182E-01  0.7147E-02
      9.081  0.2002E+00  0.2435E-01  0.5352E-01  0.2465E-01  0.1859E-01  0.6024E-01  0.1943E-01  0.2296E-01  0.6184E-02
      9.187  0.6736E-01  0.9529E-02  0.1507E-01  0.7345E-02  0.8881E-02  0.2166E-01  0.3315E-02  0.1218E-01  0.1099E-02
      9.292  0.3797E-01  0.9230E-02  0.9493E-02  0.4809E-02  0.4424E-02  0.1433E-01  0.4562E-03  0.4717E-02  0.9999E-03
      9.397  0.2535E-01  0.6564E-02  0.7477E-02  0.3556E-02  0.3034E-02  0.9824E-02  0.2980E-03  0.2951E-02  0.7618E-03
      9.503  0.1805E-01  0.6092E-02  0.2420E-01  0.8764E-02  0.6912E-02  0.7885E-02  0.1394E-02  0.4979E-02  0.1529E-02
      9.608  0.7300E-01  0.2227E-01  0.7411E-01  0.3675E-01  0.2999E-01  0.2113E-01  0.5648E-02  0.2019E-01  0.7506E-02
      9.713  0.9365E-01  0.2508E-01  0.4560E-01  0.4314E-01  0.3769E-01  0.1181E-01  0.6374E-02  0.2095E-01  0.9820E-02
      9.819  0.3558E-01  0.8982E-02  0.8980E-02  0.1529E-01  0.1383E-01  0.1692E-02  0.2273E-02  0.6214E-02  0.3412E-02
      9.924  0.5416E-01  0.1192E-01  0.1428E-01  0.1858E-01  0.1355E-01  0.4397E-03  0.3010E-02  0.2661E-02  0.2047E-02
     10.029  0.1257E+00  0.2861E-01  0.3489E-01  0.5765E-01  0.3475E-01  0.1331E-02  0.7994E-02  0.1098E-01  0.7675E-02
     10.135  0.6150E-01  0.1377E-01  0.1983E-01  0.4072E-01  0.1975E-01  0.1893E-02  0.5151E-02  0.9800E-02  0.7184E-02
     10.240  0.9571E-01  0.1187E-01  0.3867E-01  0.4424E-01  0.2240E-01  0.8981E-02  0.9594E-02  0.6918E-02  0.1119E-01
     10.345  0.1386E+00  0.2174E-01  0.5365E-01  0.7258E-01  0.4076E-01  0.1703E-01  0.1420E-01  0.1600E-01  0.1560E-01
     10.451  0.1488E+00  0.1819E-01  0.4261E-01  0.3379E-01  0.2508E-01  0.1725E-01  0.1987E-01  0.1357E-01  0.5662E-02
     10.556  0.1797E+00  0.1848E-01  0.8592E-01  0.2730E-01  0.2088E-01  0.3101E-01  0.2778E-01  0.7388E-02  0.7045E-02
     10.662  0.7714E-01  0.9132E-02  0.5708E-01  0.1577E-01  0.9588E-02  0.2140E-01  0.1423E-01  0.3159E-02  0.4829E-02
     10.767  0.1211E+00  0.1632E-01  0.3745E-01  0.1516E-01  0.6113E-02  0.2001E-01  0.2996E-01  0.1335E-01  0.6170E-03
     10.872  0.1417E+00  0.3501E-01  0.6837E-01  0.3546E-01  0.1081E-01  0.3671E-01  0.3973E-01  0.2520E-01  0.4957E-03
     10.978  0.1415E+00  0.4960E-01  0.7817E-01  0.6125E-01  0.2137E-01  0.3602E-01  0.3706E-01  0.2097E-01  0.1686E-02
     11.083  0.7692E-01  0.2721E-01  0.3665E-01  0.3630E-01  0.1313E-01  0.1631E-01  0.1656E-01  0.7583E-02  0.1044E-02
     11.188  0.2725E-01  0.8159E-02  0.1036E-01  0.9248E-02  0.4392E-02  0.1868E-02  0.1814E-02  0.7768E-03  0.9908E-04
     11.294  0.3696E-01  0.1028E-01  0.1260E-01  0.1030E-01  0.6017E-02  0.2429E-03  0.7678E-04  0.2230E-03  0.1332E-05
     11.399  0.1118E-01  0.3103E-02  0.3822E-02  0.3091E-02  0.1808E-02  0.6448E-04  0.1406E-04  0.6591E-04  0.1759E-04
     11.504  0.9368E-02  0.2371E-02  0.3987E-02  0.1781E-02  0.9131E-03  0.3587E-04  0.1948E-04  0.1345E-03  0.9055E-03
     11.610  0.6784E-01  0.1799E-01  0.2876E-01  0.1465E-01  0.7338E-02  0.3303E-03  0.7481E-03  0.2120E-02  0.8136E-02
     11.715  0.1225E+00  0.3846E-01  0.4924E-01  0.3911E-01  0.1950E-01  0.1249E-02  0.4953E-02  0.1025E-01  0.2193E-01
     11.820  0.9171E-01  0.3375E-01  0.3471E-01  0.3750E-01  0.2031E-01  0.4927E-02  0.5573E-02  0.1355E-01  0.1908E-01
     11.926  0.4209E-01  0.1577E-01  0.1562E-01  0.1504E-01  0.1106E-01  0.9520E-02  0.1111E-02  0.9730E-02  0.3649E-02
     12.031  0.2010E-01  0.7219E-02  0.7500E-02  0.9580E-02  0.6412E-02  0.5260E-02  0.5194E-03  0.5563E-02  0.6658E-03
     12.136  0.5061E-01  0.1771E-01  0.2143E-01  0.5375E-01  0.2514E-01  0.1029E-01  0.5423E-02  0.1230E-01  0.2107E-02
     12.242  0.8704E-01  0.3128E-01  0.3866E-01  0.1089E+00  0.4811E-01  0.1647E-01  0.1233E-01  0.1716E-01  0.2616E-02
     12.347  0.8425E-01  0.2218E-01  0.3688E-01  0.4517E-01  0.2039E-01  0.6767E-02  0.8591E-02  0.7169E-02  0.1692E-02
     12.452  0.1032E+00  0.2204E-01  0.4539E-01  0.1527E-01  0.6695E-02  0.1625E-02  0.8252E-02  0.1865E-02  0.1500E-02
     12.558  0.6106E-01  0.2405E-01  0.2698E-01  0.2628E-01  0.1015E-01  0.3814E-02  0.1527E-01  0.3542E-02  0.1559E-02
     12.663  0.7010E-01  0.4206E-01  0.4214E-01  0.7122E-01  0.1929E-01  0.1008E-01  0.5558E-01  0.9083E-02  0.1623E-01
     12.768  0.1453E+00  0.7319E-01  0.7350E-01  0.1116E+00  0.2675E-01  0.2125E-01  0.5584E-01  0.1957E-01  0.3728E-01
     12.874  0.1167E+00  0.5386E-01  0.4500E-01  0.6129E-01  0.1140E-01  0.1575E-01  0.2476E-01  0.1206E-01  0.1506E-01
     12.979  0.5936E-01  0.1874E-01  0.2689E-01  0.2391E-01  0.5146E-02  0.3227E-02  0.2408E-01  0.2075E-02  0.1072E-02
     13.084  0.4671E-01  0.3077E-01  0.2549E-01  0.7678E-01  0.2155E-01  0.1552E-02  0.5282E-01  0.1554E-02  0.2994E-03
     13.190  0.1328E-01  0.2227E-01  0.1120E-01  0.7940E-01  0.2230E-01  0.2448E-02  0.3493E-01  0.1877E-02  0.4353E-03
     13.295  0.2169E-01  0.9546E-02  0.5878E-01  0.2851E-01  0.5059E-02  0.1872E-01  0.1589E-01  0.9007E-02  0.1307E-02
     13.400  0.5087E-01  0.1667E-01  0.1341E+00  0.3532E-01  0.3826E-02  0.4342E-01  0.2574E-01  0.2140E-01  0.2782E-02
     13.506  0.2828E-01  0.1092E-01  0.5293E-01  0.1705E-01  0.4556E-02  0.1897E-01  0.9468E-02  0.1101E-01  0.9972E-03
     13.611  0.3549E-01  0.1818E-01  0.2052E-01  0.1565E-01  0.1013E-01  0.1245E-01  0.1722E-02  0.1099E-01  0.1929E-03
     13.716  0.3977E-01  0.2075E-01  0.2089E-01  0.1727E-01  0.1146E-01  0.1337E-01  0.1518E-02  0.1207E-01  0.1808E-03
     13.822  0.1456E-01  0.1096E-01  0.8333E-02  0.1122E-01  0.4582E-02  0.4631E-02  0.2312E-02  0.3852E-02  0.3381E-03
     13.927  0.3488E-01  0.4389E-01  0.2080E-01  0.5669E-01  0.1455E-01  0.9512E-02  0.1748E-01  0.7237E-02  0.2714E-02
     14.032  0.6761E-01  0.7023E-01  0.3554E-01  0.7909E-01  0.2081E-01  0.1361E-01  0.2435E-01  0.1018E-01  0.7213E-02
     14.138  0.1034E+00  0.6829E-01  0.5253E-01  0.5325E-01  0.1787E-01  0.1385E-01  0.8455E-02  0.1072E-01  0.7825E-02
     14.243  0.7987E-01  0.4190E-01  0.4823E-01  0.1004E+00  0.2881E-01  0.7793E-02  0.8859E-02  0.1420E-01  0.5286E-02
     14.348  0.3632E-01  0.1469E-01  0.2707E-01  0.1460E+00  0.4271E-01  0.2223E-02  0.9128E-02  0.2527E-01  0.9170E-02
     14.454  0.2073E-01  0.1007E-01  0.1387E-01  0.1043E+00  0.3323E-01  0.2606E-03  0.2702E-02  0.2134E-01  0.9508E-02
     14.559  0.4498E-02  0.8341E-02  0.3304E-02  0.2399E-01  0.7759E-02  0.2003E-03  0.5638E-02  0.4532E-02  0.3851E-02
     14.665  0.2037E-02  0.5281E-01  0.5950E-02  0.1994E-01  0.4122E-02  0.1909E-02  0.4443E-01  0.7836E-03  0.1284E-01
     14.770  0.1303E-01  0.8776E-01  0.2628E-01  0.5444E-01  0.8855E-02  0.5618E-02  0.7838E-01  0.4103E-02  0.1473E-01
     14.875  0.3098E-01  0.5763E-01  0.5782E-01  0.8725E-01  0.1476E-01  0.1052E-01  0.8127E-01  0.1090E-01  0.5751E-02
     14.981  0.3017E-01  0.7686E-01  0.5403E-01  0.1256E+00  0.2230E-01  0.1070E-01  0.8540E-01  0.1277E-01  0.1650E-01
     15.086  0.3479E-01  0.4469E-01  0.4873E-01  0.9170E-01  0.1781E-01  0.1045E-01  0.3187E-01  0.1181E-01  0.2443E-01
     15.191  0.3434E-01  0.2320E-01  0.3638E-01  0.4853E-01  0.1265E-01  0.1171E-01  0.5704E-02  0.1198E-01  0.1082E-01
     15.297  0.2990E-01  0.7738E-01  0.3521E-01  0.7411E-01  0.1033E-01  0.1195E-01  0.2145E-01  0.1170E-01  0.5406E-02
     15.402  0.4766E-01  0.1212E+00  0.4198E-01  0.1098E+00  0.1742E-01  0.1623E-01  0.2892E-01  0.1560E-01  0.6578E-02
     15.507  0.7345E-01  0.8992E-01  0.9685E-01  0.8138E-01  0.1983E-01  0.3275E-01  0.2268E-01  0.2780E-01  0.2073E-02
     15.613  0.7119E-01  0.5338E-01  0.1953E+00  0.4905E-01  0.8712E-02  0.5730E-01  0.1726E-01  0.4393E-01  0.1844E-02
     15.718  0.5330E-01  0.5184E-01  0.9818E-01  0.2914E-01  0.7056E-02  0.3280E-01  0.1167E-01  0.2163E-01  0.2851E-02
     15.823  0.3285E-01  0.7443E-01  0.4350E-01  0.2849E-01  0.6616E-02  0.1815E-01  0.4502E-01  0.7658E-02  0.7233E-02
     15.929  0.2200E-01  0.1051E+00  0.7015E-01  0.6547E-01  0.6159E-02  0.2256E-01  0.7370E-01  0.1216E-01  0.1445E-01
     16.034  0.1513E-01  0.1363E+00  0.4563E-01  0.1044E+00  0.1264E-01  0.1699E-01  0.6826E-01  0.1066E-01  0.3064E-01
     16.139  0.3066E-02  0.5210E-01  0.6227E-02  0.3861E-01  0.7167E-02  0.3477E-02  0.2771E-01  0.1910E-02  0.1773E-01
     16.245  0.1968E-03  0.3745E-02  0.2584E-03  0.2661E-02  0.6748E-03  0.1650E-03  0.2399E-02  0.6275E-04  0.1690E-02
     16.350  0.2313E-03  0.3219E-02  0.3213E-02  0.4187E-03  0.4244E-04  0.8154E-03  0.3190E-02  0.2107E-04  0.3226E-03
     16.455  0.2560E-02  0.3356E-01  0.2943E-01  0.1281E-01  0.9242E-03  0.7314E-02  0.2861E-01  0.9926E-03  0.3826E-02
     16.561  0.9086E-02  0.6520E-01  0.4779E-01  0.8094E-01  0.7976E-02  0.1011E-01  0.4253E-01  0.9682E-02  0.9928E-02
     16.666  0.1830E-01  0.3095E-01  0.3035E-01  0.1295E+00  0.1918E-01  0.2459E-02  0.1519E-01  0.2069E-01  0.1128E-01
     16.771  0.3310E-01  0.2862E-01  0.3615E-01  0.1449E+00  0.3305E-01  0.3342E-02  0.6774E-02  0.2848E-01  0.2251E-01
     16.877  0.4070E-01  0.9060E-01  0.5011E-01  0.1998E+00  0.5574E-01  0.1591E-01  0.2907E-01  0.4545E-01  0.3215E-01
     16.982  0.3688E-01  0.1188E+00  0.6246E-01  0.1765E+00  0.4953E-01  0.2407E-01  0.5508E-01  0.4018E-01  0.2874E-01
     17.087  0.2317E-01  0.8352E-01  0.3449E-01  0.8195E-01  0.1278E-01  0.1650E-01  0.2986E-01  0.1467E-01  0.1122E-01
     17.193  0.3457E-01  0.9235E-01  0.3141E-01  0.7640E-01  0.9232E-02  0.2282E-01  0.1556E-01  0.1489E-01  0.7341E-02
     17.298  0.3619E-01  0.8411E-01  0.5751E-01  0.9929E-01  0.1375E-01  0.1727E-01  0.4447E-01  0.1565E-01  0.1550E-01
     17.403  0.3355E-01  0.6408E-01  0.7574E-01  0.9536E-01  0.1320E-01  0.1247E-01  0.6383E-01  0.1493E-01  0.1471E-01
     17.509  0.2574E-01  0.6320E-01  0.5117E-01  0.4315E-01  0.5280E-02  0.1637E-01  0.5384E-01  0.9200E-02  0.4182E-02
     17.614  0.1069E-01  0.2570E-01  0.1622E-01  0.1560E-01  0.1912E-02  0.7034E-02  0.1555E-01  0.3986E-02  0.1755E-02
     17.719  0.8475E-02  0.1794E-01  0.2766E-01  0.2314E-01  0.5427E-02  0.7686E-02  0.1628E-01  0.6276E-02  0.1564E-01
     17.825  0.1869E-01  0.3640E-01  0.6706E-01  0.5217E-01  0.1176E-01  0.1794E-01  0.3517E-01  0.1534E-01  0.3479E-01
     17.930  0.1256E-01  0.1705E-01  0.2966E-01  0.4258E-01  0.6767E-02  0.7371E-02  0.1583E-01  0.8926E-02  0.2229E-01
     18.035  0.5512E-02  0.1904E-01  0.5394E-02  0.4169E-01  0.4129E-02  0.2947E-02  0.4496E-02  0.6580E-02  0.1133E-01
     18.141  0.5200E-02  0.6230E-01  0.2086E-01  0.1047E+00  0.1367E-01  0.1508E-01  0.1609E-01  0.2509E-01  0.1014E-01
     18.246  0.1194E-01  0.8149E-01  0.1007E+00  0.1084E+00  0.1871E-01  0.4378E-01  0.5690E-01  0.4465E-01  0.1142E-01
     18.351  0.1716E-01  0.5389E-01  0.1369E+00  0.3094E-01  0.7393E-02  0.4472E-01  0.8037E-01  0.2799E-01  0.5124E-02
     18.457  0.2460E-01  0.4069E-01  0.1237E+00  0.2507E-01  0.6484E-02  0.2883E-01  0.7514E-01  0.1400E-01  0.3453E-02
     18.562  0.2829E-01  0.3964E-01  0.6636E-01  0.2832E-01  0.1477E-01  0.1607E-01  0.3022E-01  0.1185E-01  0.2176E-02
     18.667  0.1724E-01  0.5123E-01  0.3895E-01  0.2163E-01  0.1189E-01  0.7873E-02  0.1221E-01  0.7886E-02  0.3509E-02
     18.773  0.3060E-02  0.5134E-01  0.2271E-01  0.3695E-01  0.4051E-02  0.7731E-02  0.8634E-02  0.9245E-02  0.5725E-02
     18.878  0.7601E-02  0.5526E-01  0.8457E-02  0.1097E+00  0.1965E-01  0.7136E-02  0.9994E-02  0.1781E-01  0.2748E-01
     18.984  0.1965E-01  0.9768E-01  0.1463E-01  0.2172E+00  0.3922E-01  0.8864E-02  0.1855E-01  0.2926E-01  0.5936E-01
     19.089  0.1819E-01  0.8242E-01  0.1228E-01  0.1610E+00  0.2685E-01  0.9392E-02  0.1624E-01  0.1970E-01  0.4540E-01
     19.194  0.4525E-02  0.1989E-01  0.2507E-02  0.3775E-01  0.6652E-02  0.2432E-02  0.5269E-02  0.3645E-02  0.1156E-01
     19.300  0.2402E-02  0.1440E-01  0.3476E-03  0.3915E-01  0.8410E-02  0.1090E-02  0.6789E-02  0.2114E-02  0.1100E-01
     19.405  0.2730E-02  0.1904E-01  0.3741E-02  0.4641E-01  0.1165E-01  0.1300E-02  0.7769E-02  0.4646E-02  0.1220E-01
     19.510  0.2500E-02  0.2973E-01  0.2660E-01  0.4070E-01  0.2135E-01  0.2340E-02  0.4469E-02  0.2083E-01  0.3645E-02
     19.616  0.8685E-02  0.5404E-01  0.6591E-01  0.8195E-01  0.3797E-01  0.9944E-02  0.2074E-01  0.4212E-01  0.4132E-02
     19.721  0.1529E-01  0.4756E-01  0.9249E-01  0.5291E-01  0.2206E-01  0.1423E-01  0.4593E-01  0.2652E-01  0.5232E-02
     19.826  0.1309E-01  0.1573E-01  0.5413E-01  0.1495E-01  0.4453E-02  0.7465E-02  0.4448E-01  0.5460E-02  0.6475E-02
     19.932  0.2344E-01  0.1604E-01  0.7113E-01  0.3061E-01  0.7324E-02  0.1235E-01  0.7153E-01  0.8715E-02  0.1834E-01
     20.037  0.2012E-01  0.1767E-01  0.9832E-01  0.2913E-01  0.1077E-01  0.2461E-01  0.6610E-01  0.2080E-01  0.1411E-01
     20.142  0.1675E-01  0.1293E-01  0.1126E+00  0.9633E-02  0.4995E-02  0.2340E-01  0.8219E-01  0.1547E-01  0.2659E-02
     20.248  0.1343E-01  0.1219E-01  0.5778E-01  0.8765E-02  0.4089E-02  0.1166E-01  0.5210E-01  0.6037E-02  0.6191E-03
     20.353  0.8081E-02  0.1086E-01  0.1784E-01  0.1801E-01  0.5229E-02  0.8066E-02  0.1001E-01  0.5662E-02  0.3362E-02
     20.458  0.1021E-01  0.1290E-01  0.3510E-01  0.7080E-01  0.6857E-02  0.8942E-02  0.7540E-02  0.9097E-02  0.2005E-01