    1    1   10    1
  0.1510406E+02  0.2774616E-09  0.2774616E-09  0.2774616E-09  0.3500000E-15
   1.0000000000000000E-004
  CAR 
 Au, FCC                                 
   11   60    9

  0.6250000E-01  0.6250000E-01  0.6250000E-01  0.3906250E-02
   1       -4.1246
   2        0.5300
   3        0.6122
   4        0.6122
   5        1.9290
   6        1.9290
   7       20.5060
   8       22.9129
   9       24.0208

  0.1875000E+00  0.6250000E-01  0.6250000E-01  0.1171875E-01
   1       -3.4646
   2        0.3423
   3        0.7998
   4        0.8201
   5        1.7469
   6        2.0357
   7       19.9254
   8       21.0743
   9       23.3818

  0.3125000E+00  0.6250000E-01  0.6250000E-01  0.1171875E-01
   1       -2.2391
   2        0.4574
   3        0.8313
   4        0.8723
   5        1.9740
   6        2.5082
   7       15.1631
   8       20.8083
   9       22.8584

  0.4375000E+00  0.6250000E-01  0.6250000E-01  0.1171875E-01
   1       -1.7483
   2        0.5754
   3        0.6722
   4        2.0084
   5        2.6653
   6        3.5123
   7       10.3360
   8       19.9884
   9       21.5604

 -0.4375000E+00  0.6250000E-01  0.6250000E-01  0.1171875E-01
   1       -1.7376
   2        0.4838
   3        0.6173
   4        2.5318
   5        3.0439
   6        4.7800
   7        7.9560
   8       19.7493
   9       21.6096

 -0.3125000E+00  0.6250000E-01  0.6250000E-01  0.1171875E-01
   1       -1.8092
   2        0.6205
   3        0.7629
   4        1.3391
   5        2.7755
   6        2.8290
   7       11.8670
   8       20.3818
   9       22.1107

 -0.1875000E+00  0.6250000E-01  0.6250000E-01  0.1171875E-01
   1       -2.6361
   2        0.2855
   3        0.8677
   4        0.9119
   5        1.8864
   6        2.2275
   7       16.8330
   8       21.3258
   9       23.0624

 -0.6250000E-01  0.6250000E-01  0.6250000E-01  0.1171875E-01
   1       -3.7854
   2        0.3861
   3        0.7450
   4        0.7503
   5        1.7669
   6        2.0129
   7       20.7268
   8       21.7454
   9       23.4758

  0.1875000E+00  0.1875000E+00  0.6250000E-01  0.1171875E-01
   1       -3.1399
   2        0.1085
   3        0.9975
   4        1.0196
   5        1.5340
   6        2.1707
   7       20.2585
   8       21.4606
   9       22.2347

  0.3125000E+00  0.1875000E+00  0.6250000E-01  0.2343750E-01
   1       -2.0578
   2       -0.1392
   3        0.8236
   4        1.3468
   5        1.8296
   6        2.6041
   7       17.1601
   8       19.6019
   9       22.1482

  0.4375000E+00  0.1875000E+00  0.6250000E-01  0.2343750E-01
   1       -1.2913
   2        0.3493
   3        0.5015
   4        1.2171
   5        2.7369
   6        3.8598
   7       12.2055
   8       18.9484
   9       20.0695

 -0.4375000E+00  0.1875000E+00  0.6250000E-01  0.2343750E-01
   1       -1.2401
   2        0.1940
   3        1.0305
   4        1.4271
   5        2.9843
   6        6.4311
   7        8.0408
   8       18.4253
   9       19.3069

 -0.3125000E+00  0.1875000E+00  0.6250000E-01  0.2343750E-01
   1       -1.1994
   2        0.3069
   3        0.9245
   4        1.1577
   5        2.5687
   6        4.7112
   7       10.7731
   8       17.7712
   9       20.4685

 -0.1875000E+00  0.1875000E+00  0.6250000E-01  0.2343750E-01
   1       -1.6460
   2        0.0163
   3        0.6783
   4        1.3028
   5        1.7464
   6        3.1488
   7       15.4484
   8       18.2395
   9       22.1990

 -0.6250000E-01  0.1875000E+00  0.6250000E-01  0.2343750E-01
   1       -2.8563
   2        0.1469
   3        0.9131
   4        1.0181
   5        1.6295
   6        2.2605
   7       18.5538
   8       20.6492
   9       23.0198

  0.3125000E+00  0.3125000E+00  0.6250000E-01  0.1171875E-01
   1       -1.5491
   2       -0.5879
   3        1.1849
   4        1.8672
   5        2.2342
   6        2.6224
   7       17.4851
   8       18.7524
   9       19.6754

  0.4375000E+00  0.3125000E+00  0.6250000E-01  0.2343750E-01
   1       -1.1045
   2       -0.7149
   3        1.1646
   4        2.2164
   5        2.7984
   6        4.0057
   7       14.1494
   8       16.5866
   9       17.4429

 -0.4375000E+00  0.3125000E+00  0.6250000E-01  0.2343750E-01
   1       -0.9248
   2       -0.2870
   3        0.9479
   4        1.9146
   5        3.0557
   6        6.9573
   7        9.9704
   8       14.8580
   9       17.2881

 -0.3125000E+00  0.3125000E+00  0.6250000E-01  0.2343750E-01
   1       -0.5844
   2        0.0492
   3        0.5537
   4        1.6878
   5        2.6112
   6        6.7746
   7       10.8689
   8       13.3433
   9       18.8943

 -0.1875000E+00  0.3125000E+00  0.6250000E-01  0.2343750E-01
   1       -0.7380
   2        0.1408
   3        0.3478
   4        1.4761
   5        2.1424
   6        4.6943
   7       12.7430
   8       15.5513
   9       20.6735

 -0.6250000E-01  0.3125000E+00  0.6250000E-01  0.2343750E-01
   1       -1.7504
   2        0.4930
   3        0.6906
   4        0.9720
   5        2.2561
   6        3.0241
   7       13.6220
   8       20.0336
   9       21.6557

  0.4375000E+00  0.4375000E+00  0.6250000E-01  0.1171875E-01
   1       -1.4083
   2       -1.1211
   3        2.6337
   4        2.7283
   5        3.0983
   6        4.5581
   7       12.9825
   8       15.4617
   9       15.9604

 -0.4375000E+00  0.4375000E+00  0.6250000E-01  0.2343750E-01
   1       -1.3075
   2       -1.0427
   3        2.2490
   4        2.6992
   5        3.2577
   6        7.1540
   7       10.4762
   8       13.9425
   9       15.3206

 -0.3125000E+00  0.4375000E+00  0.6250000E-01  0.2343750E-01
   1       -0.9484
   2       -0.4118
   3        1.2132
   4        2.1411
   5        3.0174
   6        8.5883
   7        9.5638
   8       12.6340
   9       16.8703

 -0.1875000E+00  0.4375000E+00  0.6250000E-01  0.2343750E-01
   1       -0.8626
   2        0.0241
   3        0.9800
   4        1.3730
   5        2.8348
   6        7.1393
   7        8.6220
   8       15.9091
   9       19.0281

 -0.6250000E-01  0.4375000E+00  0.6250000E-01  0.2343750E-01
   1       -1.5537
   2        0.4086
   3        0.7806
   4        1.8348
   5        2.9231
   6        4.7424
   7        9.0480
   8       19.6577
   9       20.4636

 -0.4375000E+00 -0.4375000E+00  0.6250000E-01  0.1171875E-01
   1       -1.5098
   2       -1.2402
   3        2.9132
   4        3.0265
   5        3.2762
   6        6.2032
   7       10.7328
   8       14.7296
   9       15.3012

 -0.3125000E+00 -0.4375000E+00  0.6250000E-01  0.2343750E-01
   1       -1.2027
   2       -0.9287
   3        1.7919
   4        2.5876
   5        3.0763
   6        5.4667
   7       12.3809
   8       14.9132
   9       15.9690

 -0.1875000E+00 -0.4375000E+00  0.6250000E-01  0.2343750E-01
   1       -1.0005
   2       -0.0185
   3        0.6473
   4        1.5606
   5        3.0025
   6        5.2230
   7       10.9498
   8       17.3416
   9       18.1807

 -0.3125000E+00 -0.3125000E+00  0.6250000E-01  0.1171875E-01
   1       -1.3160
   2       -0.8950
   3        1.8859
   4        2.3463
   5        2.8653
   6        3.1221
   7       15.5410
   8       17.0139
   9       17.1655

 -0.1875000E+00 -0.3125000E+00  0.6250000E-01  0.2343750E-01
   1       -1.3371
   2       -0.4411
   3        0.7591
   4        1.7587
   5        2.3428
   6        3.0959
   7       15.7027
   8       18.1467
   9       19.8703

 -0.1875000E+00 -0.1875000E+00  0.6250000E-01  0.1171875E-01
   1       -2.2927
   2       -0.2367
   3        1.0651
   4        1.4030
   5        1.6582
   6        2.3825
   7       19.0190
   8       20.5306
   9       21.6678

  0.1875000E+00  0.1875000E+00  0.1875000E+00  0.3906250E-02
   1       -3.1757
   2        0.3687
   3        0.8213
   4        0.8213
   5        1.9300
   6        1.9300
   7       18.3764
   8       21.3642
   9       24.6049

  0.3125000E+00  0.1875000E+00  0.1875000E+00  0.1171875E-01
   1       -2.3273
   2        0.1351
   3        0.8575
   4        1.1019
   5        1.5773
   6        2.6171
   7       16.9338
   8       19.5143
   9       23.3188

  0.4375000E+00  0.1875000E+00  0.1875000E+00  0.1171875E-01
   1       -1.1701
   2        0.1351
   3        0.6055
   4        1.2620
   5        1.8052
   6        3.8395
   7       13.9769
   8       16.8652
   9       22.0519

 -0.4375000E+00  0.1875000E+00  0.1875000E+00  0.1171875E-01
   1       -1.0607
   2        0.2019
   3        1.1238
   4        1.1891
   5        2.6308
   6        5.7579
   7        9.5871
   8       16.7317
   9       21.1660

 -0.3125000E+00  0.1875000E+00  0.1875000E+00  0.1171875E-01
   1       -1.1644
   2        0.1613
   3        1.0288
   4        1.2009
   5        3.0864
   6        5.7652
   7        9.2740
   8       17.9133
   9       19.6466

 -0.1875000E+00  0.1875000E+00  0.1875000E+00  0.1171875E-01
   1       -1.3357
   2       -0.1229
   3        0.6315
   4        1.3968
   5        2.8685
   6        3.1520
   7       13.8912
   8       19.5116
   9       19.9114

  0.3125000E+00  0.3125000E+00  0.1875000E+00  0.1171875E-01
   1       -1.9465
   2        0.1017
   3        0.7442
   4        1.1034
   5        2.2740
   6        2.5632
   7       15.3457
   8       21.1829
   9       21.2336

  0.4375000E+00  0.3125000E+00  0.1875000E+00  0.2343750E-01
   1       -1.0051
   2       -0.1508
   3        0.3995
   4        1.6494
   5        2.1972
   6        3.8672
   7       14.0715
   8       16.8915
   9       20.1489

 -0.4375000E+00  0.3125000E+00  0.1875000E+00  0.2343750E-01
   1       -0.4010
   2       -0.0660
   3        0.1845
   4        1.7961
   5        2.5778
   6        5.8597
   7       11.7343
   8       14.3806
   9       18.2760

 -0.3125000E+00  0.3125000E+00  0.1875000E+00  0.2343750E-01
   1       -0.6068
   2       -0.1636
   3        0.6473
   4        1.7019
   5        2.9483
   6        7.8132
   7        8.9588
   8       15.0524
   9       16.9170

 -0.1875000E+00  0.3125000E+00  0.1875000E+00  0.2343750E-01
   1       -0.7499
   2       -0.3537
   3        0.4820
   4        2.0530
   5        2.6527
   6        4.9494
   7       12.8019
   8       15.5737
   9       17.7612

  0.4375000E+00  0.4375000E+00  0.1875000E+00  0.1171875E-01
   1       -1.0975
   2       -0.4068
   3        0.9497
   4        1.7664
   5        3.0806
   6        4.4429
   7       12.4985
   8       17.2689
   9       18.0823

 -0.4375000E+00  0.4375000E+00  0.1875000E+00  0.2343750E-01
   1       -0.8397
   2       -0.5622
   3        0.9408
   4        2.2973
   5        3.0102
   6        6.4835
   7       11.6125
   8       14.2416
   9       15.8212

 -0.3125000E+00  0.4375000E+00  0.1875000E+00  0.2343750E-01
   1       -0.5828
   2       -0.1656
   3        0.5126
   4        1.9146
   5        3.2489
   6        8.9693
   7       10.5407
   8       12.1828
   9       14.6722

 -0.1875000E+00  0.4375000E+00  0.1875000E+00  0.2343750E-01
   1       -0.4231
   2       -0.1729
   3        0.3067
   4        1.9438
   5        2.9796
   6        7.3872
   7       10.9672
   8       13.3410
   9       16.0105

 -0.4375000E+00 -0.4375000E+00  0.1875000E+00  0.1171875E-01
   1       -1.2049
   2       -0.7908
   3        1.8858
   4        2.4560
   5        3.1157
   6        7.8767
   7        9.9755
   8       13.0420
   9       16.5286

 -0.3125000E+00 -0.4375000E+00  0.1875000E+00  0.2343750E-01
   1       -0.9509
   2       -0.6664
   3        1.3359
   4        2.2948
   5        3.2509
   6        8.3012
   7       10.2450
   8       13.0962
   9       14.9567

 -0.3125000E+00 -0.3125000E+00  0.1875000E+00  0.1171875E-01
   1       -1.1335
   2       -0.6582
   3        1.5017
   4        2.1555
   5        3.1565
   6        6.0872
   7       11.2250
   8       14.7542
   9       17.0611

  0.3125000E+00  0.3125000E+00  0.3125000E+00  0.3906250E-02
   1       -2.0645
   2        0.7475
   3        0.7475
   4        1.0292
   5        2.4028
   6        2.4028
   7       13.4331
   8       20.6964
   9       23.8439

  0.4375000E+00  0.3125000E+00  0.3125000E+00  0.1171875E-01
   1       -1.4968
   2        0.5022
   3        0.9180
   4        0.9993
   5        2.2506
   6        3.7329
   7       12.0963
   8       18.8668
   9       21.4081

 -0.4375000E+00  0.3125000E+00  0.3125000E+00  0.1171875E-01
   1       -0.6333
   2        0.1799
   3        0.5369
   4        1.4574
   5        2.2929
   6        5.6213
   7       11.7025
   8       14.3167
   9       21.6166

 -0.3125000E+00  0.3125000E+00  0.3125000E+00  0.1171875E-01
   1       -0.8305
   2       -0.0856
   3        0.9233
   4        1.8862
   5        2.7656
   6        7.7888
   7       10.0272
   8       12.7363
   9       18.6574

  0.4375000E+00  0.4375000E+00  0.3125000E+00  0.1171875E-01
   1       -1.4920
   2        0.4121
   3        0.9204
   4        1.1988
   5        3.0204
   6        4.0741
   7       10.4710
   8       19.9592
   9       20.6935

 -0.4375000E+00  0.4375000E+00  0.3125000E+00  0.2343750E-01
   1       -0.8768
   2        0.0345
   3        0.7918
   4        1.4202
   5        2.8463
   6        6.1198
   7        9.6703
   8       16.7285
   9       18.3968

 -0.3125000E+00  0.4375000E+00  0.3125000E+00  0.2343750E-01
   1       -0.5542
   2       -0.1273
   3        0.5418
   4        1.8626
   5        2.9793
   6        8.1390
   7       10.2708
   8       12.6980
   9       16.4731

 -0.4375000E+00 -0.4375000E+00  0.3125000E+00  0.1171875E-01
   1       -0.9210
   2       -0.0259
   3        0.9420
   4        1.5599
   5        2.9703
   6        7.7109
   7        8.4121
   8       15.2908
   9       18.9771

  0.4375000E+00  0.4375000E+00  0.4375000E+00  0.3906250E-02
   1       -1.8335
   2        0.5684
   3        0.5684
   4        2.9513
   5        2.9513
   6        3.4769
   7        8.9079
   8       19.8095
   9       22.3722

 -0.4375000E+00  0.4375000E+00  0.4375000E+00  0.1171875E-01
   1       -1.4691
   2        0.3413
   3        0.8128
   4        1.8910
   5        2.9233
   6        5.7503
   7        8.0238
   8       18.9818
   9       20.7294
