       N       E                     dE             d eps       ncg     rms          rms(c)
DAV:   1     0.431767252345E+02    0.43177E+02   -0.48416E+03  1296   0.839E+02

DAV:   2    -0.258719710716E+01   -0.45764E+02   -0.41877E+02  1102   0.212E+02

DAV:   3    -0.310568445688E+01   -0.51849E+00   -0.51826E+00  1266   0.273E+01

DAV:   4    -0.310704557318E+01   -0.13611E-02   -0.13611E-02  1229   0.129E+00

DAV:   5    -0.310705572286E+01   -0.10150E-04   -0.10150E-04  1253   0.104E-01    0.292E+00
RMM:   6    -0.289381031593E+01    0.21325E+00   -0.30676E-01  1080   0.778E+00    0.929E-01
RMM:   7    -0.286419503864E+01    0.29615E-01   -0.39385E-02  1080   0.238E+00    0.253E-01
RMM:   8    -0.285945104199E+01    0.47440E-02   -0.14310E-03  1080   0.676E-01    0.105E-02
RMM:   9    -0.285946092262E+01   -0.98806E-05   -0.19183E-05   611   0.619E-02

   1 F= -.28594609E+01 E0= -.28589967E+01  d E =-.285946E+01
       N       E                     dE             d eps       ncg     rms          rms(c)
DAV:   1    -0.191962860065E+02   -0.19196E+02   -0.43027E+02  1108   0.306E+02    0.203E+01
RMM:   2    -0.447988871686E+01    0.14716E+02   -0.29927E+01  1080   0.797E+01    0.594E+00
RMM:   3    -0.302631645326E+01    0.14536E+01   -0.54360E+00  1080   0.304E+01    0.203E+00
RMM:   4    -0.295587438506E+01    0.70442E-01   -0.32160E-01  1080   0.797E+00    0.807E-01
RMM:   5    -0.292740925058E+01    0.28465E-01   -0.17311E-02  1080   0.112E+00    0.847E-02
RMM:   6    -0.292744052702E+01   -0.31276E-04   -0.18581E-03  1079   0.554E-01    0.432E-02
RMM:   7    -0.292751998928E+01   -0.79462E-04   -0.33760E-04   900   0.247E-01

   2 F= -.29275200E+01 E0= -.29266344E+01  d E =-.680591E-01
       N       E                     dE             d eps       ncg     rms          rms(c)
DAV:   1    -0.574112171701E+01   -0.57411E+01   -0.58322E+01  1125   0.109E+02    0.909E+00
RMM:   2    -0.317963368287E+01    0.25615E+01   -0.59755E+00  1080   0.334E+01    0.140E+00
RMM:   3    -0.314063059572E+01    0.39003E-01   -0.15932E-01  1080   0.392E+00    0.598E-01
RMM:   4    -0.314150952503E+01   -0.87893E-03   -0.17404E-02  1080   0.165E+00    0.952E-02
RMM:   5    -0.314116318165E+01    0.34634E-03   -0.90134E-04  1079   0.406E-01    0.241E-02
RMM:   6    -0.314116151382E+01    0.16678E-05   -0.18256E-05   625   0.495E-02

   3 F= -.31411615E+01 E0= -.31401231E+01  d E =-.213642E+00
       N       E                     dE             d eps       ncg     rms          rms(c)
DAV:   1    -0.524797992402E+01   -0.52480E+01   -0.49206E+01  1132   0.103E+02    0.811E+00
RMM:   2    -0.322447220275E+01    0.20235E+01   -0.40751E+00  1080   0.285E+01    0.154E+00
RMM:   3    -0.315964034222E+01    0.64832E-01   -0.19777E-01  1080   0.496E+00    0.537E-01
RMM:   4    -0.315938161483E+01    0.25873E-03   -0.11024E-02  1080   0.131E+00    0.421E-02
RMM:   5    -0.315935602727E+01    0.25588E-04   -0.12013E-04   769   0.963E-02

   4 F= -.31593560E+01 E0= -.31588796E+01  d E =-.181945E-01
       N       E                     dE             d eps       ncg     rms          rms(c)
DAV:   1    -0.360313103681E+01   -0.36031E+01   -0.10252E+01  1127   0.485E+01    0.359E+00
RMM:   2    -0.319599545885E+01    0.40714E+00   -0.80588E-01  1080   0.127E+01    0.677E-01
RMM:   3    -0.318136740450E+01    0.14628E-01   -0.41928E-02  1080   0.250E+00    0.230E-01
RMM:   4    -0.318071774339E+01    0.64966E-03   -0.26336E-03  1080   0.705E-01    0.281E-02
RMM:   5    -0.318070660933E+01    0.11134E-04   -0.91522E-05   673   0.123E-01

   5 F= -.31807066E+01 E0= -.31799476E+01  d E =-.213506E-01
       N       E                     dE             d eps       ncg     rms          rms(c)
DAV:   1    -0.318909953031E+01   -0.31891E+01   -0.18839E-01  1130   0.650E+00    0.496E-01
RMM:   2    -0.318140729328E+01    0.76922E-02   -0.15545E-02  1080   0.175E+00    0.909E-02
RMM:   3    -0.318116288054E+01    0.24441E-03   -0.72801E-04  1029   0.316E-01    0.319E-02
RMM:   4    -0.318116176458E+01    0.11160E-05   -0.41700E-05   612   0.862E-02

   6 F= -.31811618E+01 E0= -.31804833E+01  d E =-.455155E-03

