PROCAR lm decomposed
# of k-points:   60         # of bands:   9         # of ions:   1

 k-point    1 :    0.06250000 0.06250000 0.06250000     weight = 0.00390625

band   1 # energy   -4.12460384 # occ.  2.00000000

ion      s     py     pz     px    dxy    dyz    dz2    dxz    dx2    tot
  1  0.579  0.002  0.002  0.002  0.000  0.000  0.000  0.000  0.000  0.584

band   2 # energy    0.52999830 # occ.  2.00000000

ion      s     py     pz     px    dxy    dyz    dz2    dxz    dx2    tot
  1  0.000  0.000  0.000  0.000  0.306  0.306  0.000  0.306  0.000  0.919

band   3 # energy    0.61218191 # occ.  2.00000000

ion      s     py     pz     px    dxy    dyz    dz2    dxz    dx2    tot
  1  0.000  0.000  0.000  0.000  0.460  0.000  0.001  0.462  0.000  0.923

band   4 # energy    0.61218224 # occ.  2.00000000

ion      s     py     pz     px    dxy    dyz    dz2    dxz    dx2    tot
  1  0.000  0.000  0.000  0.000  0.154  0.615  0.000  0.153  0.001  0.923

band   5 # energy    1.92900108 # occ.  2.00000000

ion      s     py     pz     px    dxy    dyz    dz2    dxz    dx2    tot
  1  0.000  0.000  0.000  0.000  0.000  0.001  0.233  0.000  0.723  0.957

band   6 # energy    1.92900127 # occ.  2.00000000

ion      s     py     pz     px    dxy    dyz    dz2    dxz    dx2    tot
  1  0.000  0.000  0.000  0.000  0.001  0.000  0.723  0.001  0.233  0.957

band   7 # energy   20.50595168 # occ.  0.00000000

ion      s     py     pz     px    dxy    dyz    dz2    dxz    dx2    tot
  1  0.000  0.001  0.001  0.001  0.007  0.007  0.000  0.007  0.000  0.023

band   8 # energy   22.91287412 # occ.  0.00000000

ion      s     py     pz     px    dxy    dyz    dz2    dxz    dx2    tot
  1  0.022  0.070  0.070  0.070  0.008  0.008  0.000  0.008  0.000  0.255

band   9 # energy   24.02084084 # occ.  0.00000000

ion      s     py     pz     px    dxy    dyz    dz2    dxz    dx2    tot
  1  0.000  0.153  0.040  0.039  0.002  0.002  0.002  0.007  0.005  0.249


 k-point    2 :    0.18750000 0.06250000 0.06250000     weight = 0.01171875

band   1 # energy   -3.46457116 # occ.  2.00000000

ion      s     py     pz     px    dxy    dyz    dz2    dxz    dx2    tot
  1  0.547  0.014  0.014  0.001  0.001  0.007  0.000  0.001  0.001  0.587

band   2 # energy    0.34230605 # occ.  2.00000000

ion      s     py     pz     px    dxy    dyz    dz2    dxz    dx2    tot
  1  0.001  0.001  0.001  0.005  0.434  0.025  0.000  0.434  0.000  0.902

band   3 # energy    0.79975488 # occ.  2.00000000

ion      s     py     pz     px    dxy    dyz    dz2    dxz    dx2    tot
  1  0.000  0.000  0.000  0.000  0.455  0.000  0.012  0.455  0.004  0.926

band   4 # energy    0.82007843 # occ.  2.00000000

ion      s     py     pz     px    dxy    dyz    dz2    dxz    dx2    tot
  1  0.001  0.002  0.002  0.000  0.013  0.818  0.018  0.013  0.054  0.922

band   5 # energy    1.74691869 # occ.  2.00000000

ion      s     py     pz     px    dxy    dyz    dz2    dxz    dx2    tot
  1  0.000  0.000  0.000  0.000  0.008  0.000  0.697  0.008  0.232  0.946

band   6 # energy    2.03567360 # occ.  2.00000000

ion      s     py     pz     px    dxy    dyz    dz2    dxz    dx2    tot
  1  0.001  0.000  0.000  0.000  0.001  0.070  0.220  0.001  0.661  0.955

band   7 # energy   19.92535723 # occ.  0.00000000

ion      s     py     pz     px    dxy    dyz    dz2    dxz    dx2    tot
  1  0.055  0.077  0.077  0.058  0.042  0.051  0.001  0.042  0.003  0.405

band   8 # energy   21.07427250 # occ.  0.00000000

ion      s     py     pz     px    dxy    dyz    dz2    dxz    dx2    tot
  1  0.016  0.022  0.022  0.014  0.039  0.005  0.001  0.039  0.003  0.162

band   9 # energy   23.38181109 # occ.  0.00000000

ion      s     py     pz     px    dxy    dyz    dz2    dxz    dx2    tot
  1  0.001  0.013  0.013  0.260  0.020  0.020  0.001  0.020  0.004  0.352


 k-point    3 :    0.31250000 0.06250000 0.06250000     weight = 0.01171875

band   1 # energy   -2.23912400 # occ.  2.00000000

ion      s     py     pz     px    dxy    dyz    dz2    dxz    dx2    tot
  1  0.417  0.023  0.023  0.005  0.048  0.073  0.000  0.048  0.001  0.639

band   2 # energy    0.45739999 # occ.  2.00000000

ion      s     py     pz     px    dxy    dyz    dz2    dxz    dx2    tot
  1  0.046  0.015  0.015  0.024  0.365  0.004  0.001  0.365  0.002  0.837

band   3 # energy    0.83127487 # occ.  2.00000000

ion      s     py     pz     px    dxy    dyz    dz2    dxz    dx2    tot
  1  0.007  0.006  0.006  0.001  0.005  0.495  0.094  0.005  0.283  0.904

band   4 # energy    0.87229867 # occ.  2.00000000

ion      s     py     pz     px    dxy    dyz    dz2    dxz    dx2    tot
  1  0.000  0.000  0.000  0.000  0.283  0.000  0.268  0.283  0.089  0.923

band   5 # energy    1.97396718 # occ.  2.00000000

ion      s     py     pz     px    dxy    dyz    dz2    dxz    dx2    tot
  1  0.000  0.001  0.001  0.000  0.184  0.000  0.433  0.184  0.144  0.946

band   6 # energy    2.50823505 # occ.  2.00000000

ion      s     py     pz     px    dxy    dyz    dz2    dxz    dx2    tot
  1  0.012  0.004  0.004  0.000  0.014  0.343  0.140  0.014  0.421  0.951

band   7 # energy   15.16312903 # occ.  0.00000000

ion      s     py     pz     px    dxy    dyz    dz2    dxz    dx2    tot
  1  0.151  0.093  0.093  0.095  0.058  0.061  0.001  0.058  0.002  0.613

band   8 # energy   20.80828311 # occ.  0.00000000

ion      s     py     pz     px    dxy    dyz    dz2    dxz    dx2    tot
  1  0.005  0.003  0.003  0.078  0.062  0.001  0.003  0.062  0.010  0.228

band   9 # energy   22.85836328 # occ.  0.00000000

ion      s     py     pz     px    dxy    dyz    dz2    dxz    dx2    tot
  1  0.010  0.087  0.087  0.196  0.016  0.059  0.000  0.016  0.001  0.472


 k-point    4 :    0.43750000 0.06250000 0.06250000     weight = 0.01171875

band   1 # energy   -1.74827520 # occ.  2.00000000

ion      s     py     pz     px    dxy    dyz    dz2    dxz    dx2    tot
  1  0.211  0.006  0.006  0.000  0.175  0.186  0.000  0.175  0.000  0.760

band   2 # energy    0.57538358 # occ.  2.00000000

ion      s     py     pz     px    dxy    dyz    dz2    dxz    dx2    tot
  1  0.000  0.000  0.000  0.001  0.065  0.279  0.125  0.065  0.375  0.911

band   3 # energy    0.67219189 # occ.  2.00000000

ion      s     py     pz     px    dxy    dyz    dz2    dxz    dx2    tot
  1  0.000  0.000  0.000  0.000  0.191  0.000  0.399  0.191  0.133  0.915

band   4 # energy    2.00838928 # occ.  2.00000000

ion      s     py     pz     px    dxy    dyz    dz2    dxz    dx2    tot
  1  0.073  0.051  0.051  0.052  0.162  0.035  0.043  0.162  0.130  0.757

band   5 # energy    2.66529388 # occ.  2.00000000

ion      s     py     pz     px    dxy    dyz    dz2    dxz    dx2    tot
  1  0.000  0.001  0.001  0.000  0.282  0.000  0.298  0.282  0.099  0.964

band   6 # energy    3.51232232 # occ.  2.00000000

ion      s     py     pz     px    dxy    dyz    dz2    dxz    dx2    tot
  1  0.078  0.039  0.039  0.024  0.002  0.405  0.065  0.002  0.196  0.848

band   7 # energy   10.33600959 # occ.  0.00000000

ion      s     py     pz     px    dxy    dyz    dz2    dxz    dx2    tot
  1  0.285  0.062  0.062  0.077  0.085  0.064  0.001  0.085  0.003  0.723

band   8 # energy   19.98838717 # occ.  0.00000000

ion      s     py     pz     px    dxy    dyz    dz2    dxz    dx2    tot
  1  0.001  0.000  0.000  0.050  0.020  0.002  0.005  0.020  0.014  0.112

band   9 # energy   21.56042585 # occ.  0.00000000

ion      s     py     pz     px    dxy    dyz    dz2    dxz    dx2    tot
  1  0.014  0.090  0.090  0.252  0.021  0.006  0.001  0.021  0.003  0.498


 k-point    5 :   -0.43750000 0.06250000 0.06250000     weight = 0.01171875

band   1 # energy   -1.73758216 # occ.  2.00000000

ion      s     py     pz     px    dxy    dyz    dz2    dxz    dx2    tot
  1  0.171  0.000  0.000  0.003  0.196  0.216  0.000  0.196  0.000  0.783

band   2 # energy    0.48383605 # occ.  2.00000000

ion      s     py     pz     px    dxy    dyz    dz2    dxz    dx2    tot
  1  0.000  0.000  0.000  0.000  0.066  0.222  0.138  0.066  0.414  0.907

band   3 # energy    0.61725832 # occ.  2.00000000

ion      s     py     pz     px    dxy    dyz    dz2    dxz    dx2    tot
  1  0.000  0.000  0.000  0.000  0.186  0.000  0.406  0.186  0.135  0.914

band   4 # energy    2.53176116 # occ.  2.00000000

ion      s     py     pz     px    dxy    dyz    dz2    dxz    dx2    tot
  1  0.003  0.028  0.028  0.025  0.069  0.364  0.072  0.069  0.216  0.873

band   5 # energy    3.04393275 # occ.  2.00000000

ion      s     py     pz     px    dxy    dyz    dz2    dxz    dx2    tot
  1  0.000  0.000  0.000  0.000  0.292  0.000  0.295  0.292  0.098  0.977

band   6 # energy    4.78000050 # occ.  1.89317250

ion      s     py     pz     px    dxy    dyz    dz2    dxz    dx2    tot
  1  0.021  0.117  0.117  0.132  0.046  0.030  0.023  0.046  0.068  0.599

band   7 # energy    7.95597723 # occ.  0.00000000

ion      s     py     pz     px    dxy    dyz    dz2    dxz    dx2    tot
  1  0.455  0.012  0.012  0.004  0.113  0.132  0.000  0.113  0.000  0.842

band   8 # energy   19.74930767 # occ.  0.00000000

ion      s     py     pz     px    dxy    dyz    dz2    dxz    dx2    tot
  1  0.000  0.002  0.002  0.021  0.002  0.008  0.005  0.002  0.014  0.056

band   9 # energy   21.60964352 # occ.  0.00000000

ion      s     py     pz     px    dxy    dyz    dz2    dxz    dx2    tot
  1  0.017  0.096  0.064  0.294  0.010  0.011  0.005  0.009  0.011  0.516


 k-point    6 :   -0.31250000 0.06250000 0.06250000     weight = 0.01171875

band   1 # energy   -1.80917467 # occ.  2.00000000

ion      s     py     pz     px    dxy    dyz    dz2    dxz    dx2    tot
  1  0.260  0.003  0.003  0.017  0.144  0.158  0.001  0.144  0.002  0.731

band   2 # energy    0.62049167 # occ.  2.00000000

ion      s     py     pz     px    dxy    dyz    dz2    dxz    dx2    tot
  1  0.001  0.000  0.000  0.000  0.083  0.243  0.125  0.083  0.376  0.913

band   3 # energy    0.76287650 # occ.  2.00000000

ion      s     py     pz     px    dxy    dyz    dz2    dxz    dx2    tot
  1  0.000  0.001  0.001  0.000  0.228  0.000  0.345  0.228  0.115  0.918

band   4 # energy    1.33907536 # occ.  2.00000000

ion      s     py     pz     px    dxy    dyz    dz2    dxz    dx2    tot
  1  0.096  0.045  0.045  0.043  0.015  0.383  0.028  0.015  0.083  0.754

band   5 # energy    2.77548288 # occ.  2.00000000

ion      s     py     pz     px    dxy    dyz    dz2    dxz    dx2    tot
  1  0.000  0.001  0.001  0.000  0.243  0.000  0.361  0.243  0.120  0.969

band   6 # energy    2.82902462 # occ.  2.00000000

ion      s     py     pz     px    dxy    dyz    dz2    dxz    dx2    tot
  1  0.053  0.012  0.012  0.029  0.190  0.095  0.078  0.190  0.233  0.892

band   7 # energy   11.86699075 # occ.  0.00000000

ion      s     py     pz     px    dxy    dyz    dz2    dxz    dx2    tot
  1  0.233  0.086  0.086  0.072  0.065  0.077  0.001  0.065  0.002  0.686

band   8 # energy   20.38182016 # occ.  0.00000000

ion      s     py     pz     px    dxy    dyz    dz2    dxz    dx2    tot
  1  0.000  0.007  0.007  0.006  0.002  0.032  0.004  0.002  0.012  0.073

band   9 # energy   22.11074839 # occ.  0.00000000

ion      s     py     pz     px    dxy    dyz    dz2    dxz    dx2    tot
  1  0.000  0.235  0.235  0.000  0.044  0.000  0.010  0.044  0.003  0.572


 k-point    7 :   -0.18750000 0.06250000 0.06250000     weight = 0.01171875

band   1 # energy   -2.63607381 # occ.  2.00000000

ion      s     py     pz     px    dxy    dyz    dz2    dxz    dx2    tot
  1  0.480  0.010  0.010  0.032  0.027  0.018  0.001  0.027  0.003  0.608

band   2 # energy    0.28548934 # occ.  2.00000000

ion      s     py     pz     px    dxy    dyz    dz2    dxz    dx2    tot
  1  0.020  0.011  0.011  0.007  0.092  0.634  0.000  0.092  0.000  0.868

band   3 # energy    0.86769710 # occ.  2.00000000

ion      s     py     pz     px    dxy    dyz    dz2    dxz    dx2    tot
  1  0.001  0.001  0.001  0.002  0.222  0.164  0.076  0.222  0.228  0.918

band   4 # energy    0.91190916 # occ.  2.00000000

ion      s     py     pz     px    dxy    dyz    dz2    dxz    dx2    tot
  1  0.000  0.002  0.002  0.000  0.353  0.000  0.162  0.353  0.054  0.925

band   5 # energy    1.88643338 # occ.  2.00000000

ion      s     py     pz     px    dxy    dyz    dz2    dxz    dx2    tot
  1  0.008  0.000  0.000  0.005  0.108  0.083  0.157  0.108  0.470  0.938

band   6 # energy    2.22747886 # occ.  2.00000000

ion      s     py     pz     px    dxy    dyz    dz2    dxz    dx2    tot
  1  0.000  0.001  0.001  0.000  0.111  0.000  0.551  0.111  0.184  0.956

band   7 # energy   16.83302104 # occ.  0.00000000

ion      s     py     pz     px    dxy    dyz    dz2    dxz    dx2    tot
  1  0.116  0.096  0.096  0.085  0.057  0.054  0.001  0.057  0.002  0.565

band   8 # energy   21.32576231 # occ.  0.00000000

ion      s     py     pz     px    dxy    dyz    dz2    dxz    dx2    tot
  1  0.004  0.005  0.005  0.001  0.011  0.078  0.002  0.011  0.007  0.125

band   9 # energy   23.06244328 # occ.  0.00000000

ion      s     py     pz     px    dxy    dyz    dz2    dxz    dx2    tot
  1  0.000  0.204  0.204  0.000  0.078  0.000  0.012  0.078  0.004  0.581


 k-point    8 :   -0.06250000 0.06250000 0.06250000     weight = 0.01171875

band   1 # energy   -3.78536908 # occ.  2.00000000

ion      s     py     pz     px    dxy    dyz    dz2    dxz    dx2    tot
  1  0.564  0.002  0.002  0.015  0.001  0.000  0.000  0.001  0.001  0.584

band   2 # energy    0.38612844 # occ.  2.00000000

ion      s     py     pz     px    dxy    dyz    dz2    dxz    dx2    tot
  1  0.000  0.001  0.001  0.000  0.047  0.815  0.000  0.047  0.000  0.912

band   3 # energy    0.74502439 # occ.  2.00000000

ion      s     py     pz     px    dxy    dyz    dz2    dxz    dx2    tot
  1  0.000  0.001  0.001  0.001  0.408  0.097  0.002  0.408  0.005  0.923

band   4 # energy    0.75025665 # occ.  2.00000000

ion      s     py     pz     px    dxy    dyz    dz2    dxz    dx2    tot
  1  0.000  0.001  0.001  0.000  0.456  0.000  0.007  0.456  0.002  0.924

band   5 # energy    1.76688294 # occ.  2.00000000

ion      s     py     pz     px    dxy    dyz    dz2    dxz    dx2    tot
  1  0.001  0.000  0.000  0.000  0.003  0.001  0.235  0.003  0.705  0.948

band   6 # energy    2.01286972 # occ.  2.00000000

ion      s     py     pz     px    dxy    dyz    dz2    dxz    dx2    tot
  1  0.000  0.000  0.000  0.000  0.005  0.000  0.711  0.005  0.237  0.958

band   7 # energy   20.72675478 # occ.  0.00000000

ion      s     py     pz     px    dxy    dyz    dz2    dxz    dx2    tot
  1  0.003  0.012  0.012  0.006  0.014  0.063  0.000  0.014  0.000  0.125

band   8 # energy   21.74535279 # occ.  0.00000000

ion      s     py     pz     px    dxy    dyz    dz2    dxz    dx2    tot
  1  0.043  0.048  0.048  0.083  0.015  0.000  0.002  0.015  0.007  0.261

band   9 # energy   23.47578878 # occ.  0.00000000

ion      s     py     pz     px    dxy    dyz    dz2    dxz    dx2    tot
  1  0.000  0.148  0.146  0.000  0.041  0.000  0.003  0.040  0.001  0.380


 k-point    9 :    0.18750000 0.18750000 0.06250000     weight = 0.01171875

band   1 # energy   -3.13986383 # occ.  2.00000000

ion      s     py     pz     px    dxy    dyz    dz2    dxz    dx2    tot
  1  0.529  0.001  0.040  0.001  0.000  0.002  0.010  0.002  0.000  0.587

band   2 # energy    0.10852574 # occ.  2.00000000

ion      s     py     pz     px    dxy    dyz    dz2    dxz    dx2    tot
  1  0.000  0.001  0.000  0.001  0.868  0.015  0.000  0.015  0.000  0.899

band   3 # energy    0.99750303 # occ.  2.00000000

ion      s     py     pz     px    dxy    dyz    dz2    dxz    dx2    tot
  1  0.000  0.003  0.000  0.003  0.029  0.398  0.092  0.398  0.000  0.924

band   4 # energy    1.01960934 # occ.  2.00000000

ion      s     py     pz     px    dxy    dyz    dz2    dxz    dx2    tot
  1  0.000  0.003  0.000  0.003  0.000  0.446  0.000  0.446  0.028  0.926

band   5 # energy    1.53397111 # occ.  2.00000000

ion      s     py     pz     px    dxy    dyz    dz2    dxz    dx2    tot
  1  0.008  0.000  0.003  0.000  0.003  0.044  0.829  0.044  0.000  0.931

band   6 # energy    2.17074771 # occ.  2.00000000

ion      s     py     pz     px    dxy    dyz    dz2    dxz    dx2    tot
  1  0.000  0.000  0.000  0.000  0.000  0.014  0.000  0.014  0.931  0.960

band   7 # energy   20.25854668 # occ.  0.00000000

ion      s     py     pz     px    dxy    dyz    dz2    dxz    dx2    tot
  1  0.054  0.086  0.056  0.086  0.041  0.044  0.015  0.044  0.000  0.426

band   8 # energy   21.46063128 # occ.  0.00000000

ion      s     py     pz     px    dxy    dyz    dz2    dxz    dx2    tot
  1  0.016  0.000  0.018  0.000  0.114  0.000  0.014  0.000  0.000  0.163

band   9 # energy   22.23474553 # occ.  0.00000000

ion      s     py     pz     px    dxy    dyz    dz2    dxz    dx2    tot
  1  0.000  0.186  0.000  0.185  0.000  0.074  0.000  0.074  0.003  0.523


 k-point   10 :    0.31250000 0.18750000 0.06250000     weight = 0.02343750

band   1 # energy   -2.05777447 # occ.  2.00000000

ion      s     py     pz     px    dxy    dyz    dz2    dxz    dx2    tot
  1  0.439  0.010  0.063  0.001  0.006  0.038  0.047  0.006  0.000  0.611

band   2 # energy   -0.13915093 # occ.  2.00000000

ion      s     py     pz     px    dxy    dyz    dz2    dxz    dx2    tot
  1  0.004  0.002  0.001  0.008  0.800  0.002  0.002  0.058  0.000  0.877

band   3 # energy    0.82356034 # occ.  2.00000000

ion      s     py     pz     px    dxy    dyz    dz2    dxz    dx2    tot
  1  0.003  0.004  0.001  0.000  0.011  0.333  0.503  0.017  0.035  0.908

band   4 # energy    1.34684279 # occ.  2.00000000

ion      s     py     pz     px    dxy    dyz    dz2    dxz    dx2    tot
  1  0.002  0.001  0.001  0.005  0.042  0.106  0.035  0.601  0.137  0.929

band   5 # energy    1.82957601 # occ.  2.00000000

ion      s     py     pz     px    dxy    dyz    dz2    dxz    dx2    tot
  1  0.024  0.003  0.012  0.002  0.025  0.144  0.275  0.228  0.206  0.920

band   6 # energy    2.60411672 # occ.  2.00000000

ion      s     py     pz     px    dxy    dyz    dz2    dxz    dx2    tot
  1  0.014  0.003  0.005  0.000  0.000  0.299  0.051  0.004  0.578  0.955

band   7 # energy   17.16008439 # occ.  0.00000000

ion      s     py     pz     px    dxy    dyz    dz2    dxz    dx2    tot
  1  0.125  0.149  0.083  0.071  0.030  0.066  0.010  0.032  0.004  0.570

band   8 # energy   19.60190698 # occ.  0.00000000

ion      s     py     pz     px    dxy    dyz    dz2    dxz    dx2    tot
  1  0.013  0.051  0.010  0.270  0.090  0.019  0.005  0.105  0.005  0.569

band   9 # energy   22.14821829 # occ.  0.00000000

ion      s     py     pz     px    dxy    dyz    dz2    dxz    dx2    tot
  1  0.012  0.032  0.083  0.015  0.014  0.006  0.147  0.003  0.000  0.312


 k-point   11 :    0.43750000 0.18750000 0.06250000     weight = 0.02343750

band   1 # energy   -1.29130133 # occ.  2.00000000

ion      s     py     pz     px    dxy    dyz    dz2    dxz    dx2    tot
  1  0.207  0.004  0.034  0.000  0.225  0.137  0.048  0.090  0.000  0.746

band   2 # energy    0.34934963 # occ.  2.00000000

ion      s     py     pz     px    dxy    dyz    dz2    dxz    dx2    tot
  1  0.012  0.021  0.006  0.014  0.075  0.064  0.585  0.045  0.020  0.841

band   3 # energy    0.50149743 # occ.  2.00000000

ion      s     py     pz     px    dxy    dyz    dz2    dxz    dx2    tot
  1  0.055  0.005  0.023  0.014  0.477  0.206  0.042  0.000  0.029  0.851

band   4 # energy    1.21708330 # occ.  2.00000000

ion      s     py     pz     px    dxy    dyz    dz2    dxz    dx2    tot
  1  0.005  0.004  0.005  0.001  0.049  0.074  0.032  0.313  0.436  0.918

band   5 # energy    2.73686180 # occ.  2.00000000

ion      s     py     pz     px    dxy    dyz    dz2    dxz    dx2    tot
  1  0.007  0.001  0.008  0.004  0.027  0.048  0.054  0.435  0.369  0.952

band   6 # energy    3.85975403 # occ.  2.00000000

ion      s     py     pz     px    dxy    dyz    dz2    dxz    dx2    tot
  1  0.115  0.020  0.051  0.010  0.009  0.401  0.142  0.030  0.090  0.866

band   7 # energy   12.20545683 # occ.  0.00000000

ion      s     py     pz     px    dxy    dyz    dz2    dxz    dx2    tot
  1  0.223  0.098  0.071  0.103  0.071  0.038  0.008  0.048  0.005  0.666

band   8 # energy   18.94844370 # occ.  0.00000000

ion      s     py     pz     px    dxy    dyz    dz2    dxz    dx2    tot
  1  0.025  0.082  0.025  0.279  0.061  0.013  0.003  0.061  0.028  0.578

band   9 # energy   20.06949951 # occ.  0.00000000

ion      s     py     pz     px    dxy    dyz    dz2    dxz    dx2    tot
  1  0.028  0.006  0.171  0.009  0.000  0.013  0.158  0.004  0.000  0.391


 k-point   12 :   -0.43750000 0.18750000 0.06250000     weight = 0.02343750

band   1 # energy   -1.24011188 # occ.  2.00000000

ion      s     py     pz     px    dxy    dyz    dz2    dxz    dx2    tot
  1  0.132  0.000  0.013  0.006  0.299  0.199  0.009  0.137  0.001  0.796

band   2 # energy    0.19395273 # occ.  2.00000000

ion      s     py     pz     px    dxy    dyz    dz2    dxz    dx2    tot
  1  0.000  0.008  0.000  0.001  0.093  0.140  0.553  0.015  0.066  0.877

band   3 # energy    1.03049178 # occ.  2.00000000

ion      s     py     pz     px    dxy    dyz    dz2    dxz    dx2    tot
  1  0.000  0.000  0.000  0.005  0.001  0.083  0.080  0.242  0.505  0.917

band   4 # energy    1.42714703 # occ.  2.00000000

ion      s     py     pz     px    dxy    dyz    dz2    dxz    dx2    tot
  1  0.005  0.032  0.038  0.030  0.359  0.176  0.126  0.030  0.034  0.828

band   5 # energy    2.98432492 # occ.  2.00000000

ion      s     py     pz     px    dxy    dyz    dz2    dxz    dx2    tot
  1  0.001  0.000  0.000  0.000  0.034  0.172  0.030  0.425  0.310  0.973

band   6 # energy    6.43112714 # occ.  0.00000000

ion      s     py     pz     px    dxy    dyz    dz2    dxz    dx2    tot
  1  0.063  0.085  0.137  0.085  0.020  0.130  0.115  0.032  0.012  0.679

band   7 # energy    8.04082725 # occ.  0.00000000

ion      s     py     pz     px    dxy    dyz    dz2    dxz    dx2    tot
  1  0.428  0.024  0.006  0.043  0.144  0.059  0.004  0.082  0.005  0.795

band   8 # energy   18.42529903 # occ.  0.00000000

ion      s     py     pz     px    dxy    dyz    dz2    dxz    dx2    tot
  1  0.052  0.018  0.256  0.072  0.002  0.036  0.088  0.032  0.003  0.561

band   9 # energy   19.30687385 # occ.  0.00000000

ion      s     py     pz     px    dxy    dyz    dz2    dxz    dx2    tot
  1  0.012  0.076  0.001  0.211  0.045  0.006  0.037  0.011  0.059  0.457


 k-point   13 :   -0.31250000 0.18750000 0.06250000     weight = 0.02343750

band   1 # energy   -1.19935193 # occ.  2.00000000

ion      s     py     pz     px    dxy    dyz    dz2    dxz    dx2    tot
  1  0.170  0.006  0.004  0.020  0.239  0.204  0.000  0.123  0.006  0.773

band   2 # energy    0.30686839 # occ.  2.00000000

ion      s     py     pz     px    dxy    dyz    dz2    dxz    dx2    tot
  1  0.000  0.005  0.001  0.000  0.219  0.116  0.454  0.007  0.087  0.888

band   3 # energy    0.92448072 # occ.  2.00000000

ion      s     py     pz     px    dxy    dyz    dz2    dxz    dx2    tot
  1  0.026  0.023  0.030  0.015  0.079  0.125  0.023  0.194  0.323  0.837

band   4 # energy    1.15772058 # occ.  2.00000000

ion      s     py     pz     px    dxy    dyz    dz2    dxz    dx2    tot
  1  0.019  0.013  0.006  0.024  0.003  0.283  0.205  0.096  0.224  0.874

band   5 # energy    2.56874287 # occ.  2.00000000

ion      s     py     pz     px    dxy    dyz    dz2    dxz    dx2    tot
  1  0.001  0.000  0.002  0.005  0.026  0.130  0.055  0.464  0.272  0.954

band   6 # energy    4.71121982 # occ.  1.99027124

ion      s     py     pz     px    dxy    dyz    dz2    dxz    dx2    tot
  1  0.158  0.035  0.016  0.058  0.372  0.001  0.173  0.008  0.010  0.831

band   7 # energy   10.77306532 # occ.  0.00000000

ion      s     py     pz     px    dxy    dyz    dz2    dxz    dx2    tot
  1  0.255  0.073  0.103  0.061  0.028  0.083  0.028  0.063  0.000  0.696

band   8 # energy   17.77122329 # occ.  0.00000000

ion      s     py     pz     px    dxy    dyz    dz2    dxz    dx2    tot
  1  0.042  0.049  0.272  0.039  0.004  0.073  0.047  0.061  0.000  0.588

band   9 # energy   20.46846681 # occ.  0.00000000

ion      s     py     pz     px    dxy    dyz    dz2    dxz    dx2    tot
  1  0.021  0.005  0.011  0.166  0.027  0.000  0.038  0.002  0.068  0.337


 k-point   14 :   -0.18750000 0.18750000 0.06250000     weight = 0.02343750

band   1 # energy   -1.64596068 # occ.  2.00000000

ion      s     py     pz     px    dxy    dyz    dz2    dxz    dx2    tot
  1  0.389  0.024  0.000  0.052  0.119  0.019  0.009  0.013  0.012  0.638

band   2 # energy    0.01627373 # occ.  2.00000000

ion      s     py     pz     px    dxy    dyz    dz2    dxz    dx2    tot
  1  0.012  0.003  0.021  0.004  0.002  0.635  0.000  0.186  0.001  0.864

band   3 # energy    0.67831836 # occ.  2.00000000

ion      s     py     pz     px    dxy    dyz    dz2    dxz    dx2    tot
  1  0.001  0.009  0.000  0.002  0.319  0.003  0.422  0.002  0.136  0.895

band   4 # energy    1.30275969 # occ.  2.00000000

ion      s     py     pz     px    dxy    dyz    dz2    dxz    dx2    tot
  1  0.003  0.001  0.001  0.003  0.033  0.120  0.054  0.361  0.349  0.926

band   5 # energy    1.74635525 # occ.  2.00000000

ion      s     py     pz     px    dxy    dyz    dz2    dxz    dx2    tot
  1  0.007  0.001  0.002  0.006  0.012  0.107  0.033  0.340  0.424  0.931

band   6 # energy    3.14877949 # occ.  2.00000000

ion      s     py     pz     px    dxy    dyz    dz2    dxz    dx2    tot
  1  0.051  0.010  0.000  0.014  0.442  0.001  0.420  0.000  0.000  0.937

band   7 # energy   15.44844748 # occ.  0.00000000

ion      s     py     pz     px    dxy    dyz    dz2    dxz    dx2    tot
  1  0.173  0.129  0.058  0.101  0.058  0.030  0.024  0.028  0.000  0.600

band   8 # energy   18.23952711 # occ.  0.00000000

ion      s     py     pz     px    dxy    dyz    dz2    dxz    dx2    tot
  1  0.019  0.028  0.295  0.017  0.011  0.119  0.011  0.115  0.000  0.614

band   9 # energy   22.19896032 # occ.  0.00000000

ion      s     py     pz     px    dxy    dyz    dz2    dxz    dx2    tot
  1  0.021  0.013  0.008  0.117  0.000  0.001  0.044  0.000  0.056  0.261


 k-point   15 :   -0.06250000 0.18750000 0.06250000     weight = 0.02343750

band   1 # energy   -2.85626914 # occ.  2.00000000

ion      s     py     pz     px    dxy    dyz    dz2    dxz    dx2    tot
  1  0.510  0.012  0.001  0.037  0.020  0.002  0.003  0.003  0.004  0.593

band   2 # energy    0.14692247 # occ.  2.00000000

ion      s     py     pz     px    dxy    dyz    dz2    dxz    dx2    tot
  1  0.002  0.001  0.008  0.001  0.008  0.720  0.000  0.150  0.000  0.890

band   3 # energy    0.91312555 # occ.  2.00000000

ion      s     py     pz     px    dxy    dyz    dz2    dxz    dx2    tot
  1  0.001  0.005  0.000  0.002  0.630  0.020  0.200  0.009  0.050  0.917

band   4 # energy    1.01814313 # occ.  2.00000000

ion      s     py     pz     px    dxy    dyz    dz2    dxz    dx2    tot
  1  0.000  0.000  0.002  0.000  0.031  0.138  0.009  0.694  0.052  0.927

band   5 # energy    1.62950478 # occ.  2.00000000

ion      s     py     pz     px    dxy    dyz    dz2    dxz    dx2    tot
  1  0.006  0.000  0.000  0.003  0.061  0.018  0.011  0.051  0.784  0.934

band   6 # energy    2.26050978 # occ.  2.00000000

ion      s     py     pz     px    dxy    dyz    dz2    dxz    dx2    tot
  1  0.004  0.001  0.000  0.001  0.170  0.000  0.728  0.005  0.045  0.956

band   7 # energy   18.55375837 # occ.  0.00000000

ion      s     py     pz     px    dxy    dyz    dz2    dxz    dx2    tot
  1  0.093  0.116  0.060  0.085  0.066  0.032  0.009  0.033  0.002  0.496

band   8 # energy   20.64915573 # occ.  0.00000000

ion      s     py     pz     px    dxy    dyz    dz2    dxz    dx2    tot
  1  0.011  0.022  0.141  0.012  0.009  0.110  0.008  0.085  0.001  0.400

band   9 # energy   23.01978374 # occ.  0.00000000

ion      s     py     pz     px    dxy    dyz    dz2    dxz    dx2    tot
  1  0.000  0.048  0.165  0.003  0.028  0.010  0.000  0.023  0.005  0.283


 k-point   16 :    0.31250000 0.31250000 0.06250000     weight = 0.01171875

band   1 # energy   -1.54906054 # occ.  2.00000000

ion      s     py     pz     px    dxy    dyz    dz2    dxz    dx2    tot
  1  0.311  0.001  0.068  0.001  0.003  0.004  0.266  0.004  0.000  0.658

band   2 # energy   -0.58788044 # occ.  2.00000000

ion      s     py     pz     px    dxy    dyz    dz2    dxz    dx2    tot
  1  0.001  0.001  0.000  0.001  0.862  0.003  0.002  0.003  0.000  0.872

band   3 # energy    1.18488810 # occ.  2.00000000

ion      s     py     pz     px    dxy    dyz    dz2    dxz    dx2    tot
  1  0.090  0.001  0.043  0.001  0.003  0.112  0.486  0.112  0.000  0.848

band   4 # energy    1.86720308 # occ.  2.00000000

ion      s     py     pz     px    dxy    dyz    dz2    dxz    dx2    tot
  1  0.000  0.005  0.000  0.005  0.000  0.397  0.000  0.397  0.134  0.938

band   5 # energy    2.23415302 # occ.  2.00000000

ion      s     py     pz     px    dxy    dyz    dz2    dxz    dx2    tot
  1  0.046  0.005  0.024  0.005  0.005  0.345  0.130  0.345  0.000  0.905

band   6 # energy    2.62235310 # occ.  2.00000000

ion      s     py     pz     px    dxy    dyz    dz2    dxz    dx2    tot
  1  0.000  0.000  0.000  0.000  0.000  0.068  0.000  0.068  0.832  0.968

band   7 # energy   17.48508263 # occ.  0.00000000

ion      s     py     pz     px    dxy    dyz    dz2    dxz    dx2    tot
  1  0.104  0.157  0.077  0.157  0.018  0.045  0.001  0.045  0.000  0.603

band   8 # energy   18.75238604 # occ.  0.00000000
