<?xml version="1.0" encoding="ISO-8859-1"?>
<modeling>
 <generator>
  <i name="program"" type=""stringvasp</i>
  <i name="version"" type=""string4.6.26 </i>
  <i name="subversion"" type=""string15Dec04 complex  serial</i>
  <i name="platform"" type=""stringLinuxPgi</i>
  <i name="date"" type=""string2009 11 29</i>
  <i name="time"" type=""string23:21:31</i>
 </generator>
 <incar>
  <i type=""string"" nameSYSTEM"" Au, FCC</i>
  <i type=""int"" nameISTART""     0</i>
  <i type=""string"" namePREC""normal ! set fft mesh, cutoffs</i>
  <i type=""string"" nameALGO"" Fast   ! use fast algorithm for electro</i>
  <i type=""int"" nameISPIN""     1</i>
  <i name="EDIFF""      0.00010000</i>
  <i name="EDIFFG""      0.00100000</i>
  <i type=""int"" nameIBRION""     1</i>
  <i type=""int"" nameNFREE""     5</i>
  <i type=""int"" nameNSW""    10</i>
  <i type=""int"" nameISIF""     3</i>
  <i name="ENCUT""    350.00000000</i>
  <i name="POTIM""      0.35000000</i>
  <i type=""int"" nameISMEAR""     0</i>
  <i name="SIGMA""      0.10000000</i>
  <i type=""int"" nameNWRITE""     1</i>
  <i type=""logical"" nameLWAVE"" F  </i>
  <i type=""logical"" nameLCHARG"" T  </i>
  <i type=""logical"" nameLVTOT"" F  </i>
  <i type=""logical"" nameLORBIT"" F  </i>
 </incar>
 <kpoints>
  <generation param="Monkhorst-Pack">
   <v type=""int"" namedivisions""       8       8       8</v>
   <v name="usershift""      0.00000000      0.00000000      0.00000000</v>
   <v name="genvec1""      0.12500000      0.00000000      0.00000000</v>
   <v name="genvec2""      0.00000000      0.12500000      0.00000000</v>
   <v name="genvec3""      0.00000000      0.00000000      0.12500000</v>
   <v name="shift""      0.50000000      0.50000000      0.50000000</v>
  </generation>
  <varray name="kpointlist"">
   <v>       0.06250000      0.06250000      0.06250000</v>
   <v>       0.18750000      0.06250000      0.06250000</v>
   <v>       0.31250000      0.06250000      0.06250000</v>
   <v>       0.43750000      0.06250000      0.06250000</v>
   <v>      -0.43750000      0.06250000      0.06250000</v>
   <v>      -0.31250000      0.06250000      0.06250000</v>
   <v>      -0.18750000      0.06250000      0.06250000</v>
   <v>      -0.06250000      0.06250000      0.06250000</v>
   <v>       0.18750000      0.18750000      0.06250000</v>
   <v>       0.31250000      0.18750000      0.06250000</v>
   <v>       0.43750000      0.18750000      0.06250000</v>
   <v>      -0.43750000      0.18750000      0.06250000</v>
   <v>      -0.31250000      0.18750000      0.06250000</v>
   <v>      -0.18750000      0.18750000      0.06250000</v>
   <v>      -0.06250000      0.18750000      0.06250000</v>
   <v>       0.31250000      0.31250000      0.06250000</v>
   <v>       0.43750000      0.31250000      0.06250000</v>
   <v>      -0.43750000      0.31250000      0.06250000</v>
   <v>      -0.31250000      0.31250000      0.06250000</v>
   <v>      -0.18750000      0.31250000      0.06250000</v>
   <v>      -0.06250000      0.31250000      0.06250000</v>
   <v>       0.43750000      0.43750000      0.06250000</v>
   <v>      -0.43750000      0.43750000      0.06250000</v>
   <v>      -0.31250000      0.43750000      0.06250000</v>
   <v>      -0.18750000      0.43750000      0.06250000</v>
   <v>      -0.06250000      0.43750000      0.06250000</v>
   <v>      -0.43750000     -0.43750000      0.06250000</v>
   <v>      -0.31250000     -0.43750000      0.06250000</v>
   <v>      -0.18750000     -0.43750000      0.06250000</v>
   <v>      -0.31250000     -0.31250000      0.06250000</v>
   <v>      -0.18750000     -0.31250000      0.06250000</v>
   <v>      -0.18750000     -0.18750000      0.06250000</v>
   <v>       0.18750000      0.18750000      0.18750000</v>
   <v>       0.31250000      0.18750000      0.18750000</v>
   <v>       0.43750000      0.18750000      0.18750000</v>
   <v>      -0.43750000      0.18750000      0.18750000</v>
   <v>      -0.31250000      0.18750000      0.18750000</v>
   <v>      -0.18750000      0.18750000      0.18750000</v>
   <v>       0.31250000      0.31250000      0.18750000</v>
   <v>       0.43750000      0.31250000      0.18750000</v>
   <v>      -0.43750000      0.31250000      0.18750000</v>
   <v>      -0.31250000      0.31250000      0.18750000</v>
   <v>      -0.18750000      0.31250000      0.18750000</v>
   <v>       0.43750000      0.43750000      0.18750000</v>
   <v>      -0.43750000      0.43750000      0.18750000</v>
   <v>      -0.31250000      0.43750000      0.18750000</v>
   <v>      -0.18750000      0.43750000      0.18750000</v>
   <v>      -0.43750000     -0.43750000      0.18750000</v>
   <v>      -0.31250000     -0.43750000      0.18750000</v>
   <v>      -0.31250000     -0.31250000      0.18750000</v>
   <v>       0.31250000      0.31250000      0.31250000</v>
   <v>       0.43750000      0.31250000      0.31250000</v>
   <v>      -0.43750000      0.31250000      0.31250000</v>
   <v>      -0.31250000      0.31250000      0.31250000</v>
   <v>       0.43750000      0.43750000      0.31250000</v>
   <v>      -0.43750000      0.43750000      0.31250000</v>
   <v>      -0.31250000      0.43750000      0.31250000</v>
   <v>      -0.43750000     -0.43750000      0.31250000</v>
   <v>       0.43750000      0.43750000      0.43750000</v>
   <v>      -0.43750000      0.43750000      0.43750000</v>
  </varray>
  <varray name="weights"">
   <v>       0.00390625</v>
   <v>       0.01171875</v>
   <v>       0.01171875</v>
   <v>       0.01171875</v>
   <v>       0.01171875</v>
   <v>       0.01171875</v>
   <v>       0.01171875</v>
   <v>       0.01171875</v>
   <v>       0.01171875</v>
   <v>       0.02343750</v>
   <v>       0.02343750</v>
   <v>       0.02343750</v>
   <v>       0.02343750</v>
   <v>       0.02343750</v>
   <v>       0.02343750</v>
   <v>       0.01171875</v>
   <v>       0.02343750</v>
   <v>       0.02343750</v>
   <v>       0.02343750</v>
   <v>       0.02343750</v>
   <v>       0.02343750</v>
   <v>       0.01171875</v>
   <v>       0.02343750</v>
   <v>       0.02343750</v>
   <v>       0.02343750</v>
   <v>       0.02343750</v>
   <v>       0.01171875</v>
   <v>       0.02343750</v>
   <v>       0.02343750</v>
   <v>       0.01171875</v>
   <v>       0.02343750</v>
   <v>       0.01171875</v>
   <v>       0.00390625</v>
   <v>       0.01171875</v>
   <v>       0.01171875</v>
   <v>       0.01171875</v>
   <v>       0.01171875</v>
   <v>       0.01171875</v>
   <v>       0.01171875</v>
   <v>       0.02343750</v>
   <v>       0.02343750</v>
   <v>       0.02343750</v>
   <v>       0.02343750</v>
   <v>       0.01171875</v>
   <v>       0.02343750</v>
   <v>       0.02343750</v>
   <v>       0.02343750</v>
   <v>       0.01171875</v>
   <v>       0.02343750</v>
   <v>       0.01171875</v>
   <v>       0.00390625</v>
   <v>       0.01171875</v>
   <v>       0.01171875</v>
   <v>       0.01171875</v>
   <v>       0.01171875</v>
   <v>       0.02343750</v>
   <v>       0.02343750</v>
   <v>       0.01171875</v>
   <v>       0.00390625</v>
   <v>       0.01171875</v>
  </varray>
 </kpoints>
 <parameters>
  <separator name="general"">
   <i type=""string"" nameSYSTEM""Au, FCC</i>
   <i type=""logical"" nameLCOMPAT"" F  </i>
  </separator>
  <separator name="electronic"">
   <i type=""string"" namePREC""normal</i>
   <i name="ENMAX""    350.00000000</i>
   <i name="ENAUG""    356.67000000</i>
   <i name="EDIFF""      0.00010000</i>
   <i type=""int"" nameIALGO""    68</i>
   <i type=""int"" nameIWAVPR""    11</i>
   <i type=""int"" nameNBANDS""     9</i>
   <i name="NELECT""     11.00000000</i>
   <separator name="electronic smearing"">
    <i type=""int"" nameISMEAR""     0</i>
    <i name="SIGMA""      0.10000000</i>
   </separator>
   <separator name="electronic projectors"">
    <i type=""logical"" nameLREAL"" F  </i>
    <v name="ROPT""      0.00000000</v>
    <i type=""int"" nameLMAXPAW""  -100</i>
    <i type=""int"" nameLMAXMIX""     2</i>
   </separator>
   <separator name="electronic startup"">
    <i type=""int"" nameISTART""     0</i>
    <i type=""int"" nameICHARG""     2</i>
    <i type=""int"" nameINIWAV""     1</i>
   </separator>
   <separator name="electronic spin"">
    <i type=""int"" nameISPIN""     1</i>
    <i type=""logical"" nameLNONCOLLINEAR"" F  </i>
    <v name="MAGMOM""      1.00000000</v>
    <i name="NUPDOWN""     -1.00000000</i>
    <i type=""logical"" nameLSORBIT"" F  </i>
    <v name="SAXIS""      0.00000000      0.00000000      1.00000000</v>
    <i type=""logical"" nameLSPIRAL"" F  </i>
    <v name="QSPIRAL""      0.00000000      0.00000000      0.00000000</v>
    <i type=""logical"" nameLZEROZ"" F  </i>
   </separator>
   <separator name="electronic exchange-correlation"">
    <i type=""string"" nameGGA""--</i>
    <i type=""int"" nameVOSKOWN""     0</i>
    <i type=""logical"" nameLASPH"" F  </i>
    <i type=""logical"" nameLMETAGGA"" F  </i>
    <i type=""string"" nameGGA2""--</i>
   </separator>
   <separator name="electronic convergence"">
    <i type=""int"" nameNELM""    60</i>
    <i type=""int"" nameNELMDL""    -5</i>
    <i type=""int"" nameNELMIN""     2</i>
    <i name="ENINI""    350.00000000</i>
    <separator name="electronic convergence detail"">
     <i type=""logical"" nameLDIAG"" T  </i>
     <i name="WEIMIN""      0.00100000</i>
     <i name="EBREAK""      0.00000278</i>
     <i name="DEPER""      0.30000000</i>
     <i type=""int"" nameNRMM""     4</i>
     <i name="TIME""      0.10000000</i>
    </separator>
   </separator>
   <separator name="electronic mixer"">
    <i name="AMIX""      0.40000000</i>
    <i name="BMIX""      1.00000000</i>
    <i name="AMIN""      0.10000000</i>
    <i name="AMIX_MAG""      1.60000000</i>
    <i name="BMIX_MAG""      1.00000000</i>
    <separator name="electronic mixer details"">
     <i type=""int"" nameIMIX""     4</i>
     <i type=""int"" nameMAXMIX""   -45</i>
     <i name="WC""    100.00000000</i>
     <i type=""int"" nameINIMIX""     1</i>
     <i type=""int"" nameMIXPRE""     1</i>
     <i type=""int"" nameMREMOVE""     5</i>
    </separator>
   </separator>
   <separator name="electronic dipolcorrection"">
    <i type=""int"" nameIDIPOL""     0</i>
    <i type=""logical"" nameLDIPOL"" F  </i>
    <v name="DIPOL""   -100.00000000</v>
    <i name="EFIELD""      0.00000000</i>
   </separator>
  </separator>
  <separator name="grids"">
   <i type=""int"" nameNGX""    14</i>
   <i type=""int"" nameNGY""    14</i>
   <i type=""int"" nameNGZ""    14</i>
   <i type=""int"" nameNGXF""    28</i>
   <i type=""int"" nameNGYF""    28</i>
   <i type=""int"" nameNGZF""    28</i>
   <i type=""logical"" nameADDGRID"" F  </i>
  </separator>
  <separator name="ionic"">
   <i type=""int"" nameNSW""    10</i>
   <i type=""int"" nameIBRION""     1</i>
   <i type=""int"" nameISIF""     3</i>
   <i name="PSTRESS""      0.00000000</i>
   <i name="EDIFFG""      0.00100000</i>
   <i type=""int"" nameNFREE""     5</i>
   <i name="POTIM""      0.35000000</i>
   <i name="SMASS""     -3.00000000</i>
  </separator>
  <separator name="ionic md"">
   <i name="TEBEG""      0.00010000</i>
   <i name="TEEND""      0.00010000</i>
   <i type=""int"" nameNBLOCK""     1</i>
   <i type=""int"" nameKBLOCK""    10</i>
   <i type=""int"" nameNPACO""   256</i>
   <i name="APACO""     16.00000000</i>
  </separator>
  <separator name="symmetry"">
   <i type=""int"" nameISYM""     2</i>
   <i name="SYMPREC""      0.00001000</i>
  </separator>
  <separator name="dos"">
   <i type=""logical"" nameLORBIT"" F  </i>
   <v name="RWIGS""     -1.00000000</v>
   <i type=""int"" nameNEDOS""   301</i>
   <i name="EMIN""     10.00000000</i>
   <i name="EMAX""    -10.00000000</i>
  </separator>
  <separator name="writing"">
   <i type=""int"" nameNWRITE""     1</i>
   <i type=""logical"" nameLWAVE"" F  </i>
   <i type=""logical"" nameLCHARG"" T  </i>
   <i type=""logical"" nameLPARD"" F  </i>
   <i type=""logical"" nameLVTOT"" F  </i>
   <i type=""logical"" nameLELF"" F  </i>
   <i type=""logical"" nameLOPTICS"" F  </i>
   <i name="STM""      0.00000000</i>
  </separator>
  <separator name="performance"">
   <i type=""int"" nameNPAR""     1</i>
   <i type=""int"" nameNSIM""     4</i>
   <i type=""int"" nameNBLK""    32</i>
   <i type=""logical"" nameLPLANE"" T  </i>
   <i type=""logical"" nameLCRITICAL_MEM"" F  </i>
   <i type=""logical"" nameLSCALAPACK"" F  </i>
   <i type=""logical"" nameLSCALU"" F  </i>
   <i type=""logical"" nameLASYNC"" F  </i>
  </separator>
  <separator name="miscellaneous"">
   <i type=""int"" nameIDIOT""     3</i>
   <i type=""logical"" nameLMUSIC"" F  </i>
   <v name="POMASS""    196.96600000</v>
   <i type=""logical"" nameLCORR"" T  </i>
  </separator>
  <i type=""logical"" nameLREAL_COMPAT"" F  </i>
  <i type=""logical"" nameGGA_COMPAT"" T  </i>
  <i type=""logical"" nameLBERRY"" F  </i>
  <i type=""int"" nameICORELEVEL""     0</i>
  <i type=""logical"" nameLDAU"" F  </i>
  <i type=""int"" nameI_CONSTRAINED_M""     0</i>
 </parameters>
 <atominfo>
  <atoms>       1</atoms>
  <types>       1</types>
  <array name="atoms"">
   <dimension dim="1">ion</dimension>
   <field type="string">element</field>
   <field type="int">atomtype</field>
   <set>
    <rc><c>Au</c><c>   1</c></rc>
   </set>
  </array>
  <array name="atomtypes"">
   <dimension dim="1">type</dimension>
   <field type="int">atomspertype</field>
   <field type="string">element</field>
   <field>mass</field>
   <field>valence</field>
   <field type="string">pseudopotential</field>
   <set>
    <rc><c>   1</c><c>Au</c><c>    196.96600000</c><c>     11.00000000</c><c> PAW_GGA Au 18Jul2000                   </c></rc>
   </set>
  </array>
 </atominfo>
 <structure name="initialpos"">
  <crystal>
   <varray name="basis"">
    <v>       0.00000000      1.96195000      1.96195000</v>
    <v>       1.96195000      0.00000000      1.96195000</v>
    <v>       1.96195000      1.96195000      0.00000000</v>
   </varray>
   <i name="volume""     15.10406345</i>
   <varray name="rec_basis"">
    <v>      -0.25484849      0.25484849      0.25484849</v>
    <v>       0.25484849     -0.25484849      0.25484849</v>
    <v>       0.25484849      0.25484849     -0.25484849</v>
   </varray>
  </crystal>
  <varray name="positions"">
   <v>       0.00000000      0.00000000      0.00000000</v>
  </varray>
 </structure>
 <calculation>
  <scstep>
   <time name="dav""    1.12    1.10</time>
   <time name="total""    1.17    1.15</time>
   <energy>
    <i name="alphaZ""    123.73329044</i>
    <i name="ewald""  -1017.93440247</i>
    <i name="hartreedc""   -108.64682985</i>
    <i name="XCdc""     15.65807697</i>
    <i name="pawpsdc""    747.65313744</i>
    <i name="pawaedc""   -724.56448596</i>
    <i name="eentropy""     -0.00143411</i>
    <i name="bandstr""     80.20175833</i>
    <i name="atom""    927.07761444</i>
    <i name="e_fr_energy""     43.17672523</i>
    <i name="e_wo_entrp""     43.17815934</i>
    <i name="e_0_energy""     43.17744229</i>
   </energy>
  </scstep>
  <scstep>
   <time name="dav""    0.92    0.92</time>
   <time name="total""    0.93    0.93</time>
   <energy>
    <i name="e_fr_energy""     -2.58719711</i>
    <i name="e_wo_entrp""     -2.58573768</i>
    <i name="e_0_energy""     -2.58646739</i>
   </energy>
  </scstep>
  <scstep>
   <time name="dav""    1.04    1.04</time>
   <time name="total""    1.05    1.05</time>
   <energy>
    <i name="e_fr_energy""     -3.10568446</i>
    <i name="e_wo_entrp""     -3.10443151</i>
    <i name="e_0_energy""     -3.10505798</i>
   </energy>
  </scstep>
  <scstep>
   <time name="dav""    1.01    1.01</time>
   <time name="total""    1.01    1.02</time>
   <energy>
    <i name="e_fr_energy""     -3.10704557</i>
    <i name="e_wo_entrp""     -3.10579275</i>
    <i name="e_0_energy""     -3.10641916</i>
   </energy>
  </scstep>
  <scstep>
   <time name="dav""    1.04    1.04</time>
   <time name="total""    1.09    1.10</time>
   <energy>
    <i name="e_fr_energy""     -3.10705572</i>
    <i name="e_wo_entrp""     -3.10580290</i>
    <i name="e_0_energy""     -3.10642931</i>
   </energy>
  </scstep>
  <scstep>
   <time name="diag""    0.17    0.17</time>
   <time name="diis""    0.74    0.74</time>
   <time name="orth""    0.02    0.02</time>
   <time name="total""    1.04    1.04</time>
   <energy>
    <i name="e_fr_energy""     -2.89381032</i>
    <i name="e_wo_entrp""     -2.89281233</i>
    <i name="e_0_energy""     -2.89331132</i>
   </energy>
  </scstep>
  <scstep>
   <time name="diag""    0.17    0.17</time>
   <time name="diis""    0.75    0.75</time>
   <time name="orth""    0.02    0.02</time>
   <time name="total""    1.04    1.05</time>
   <energy>
    <i name="e_fr_energy""     -2.86419504</i>
    <i name="e_wo_entrp""     -2.86326207</i>
    <i name="e_0_energy""     -2.86372855</i>
   </energy>
  </scstep>
  <scstep>
   <time name="diag""    0.17    0.17</time>
   <time name="diis""    0.74    0.75</time>
   <time name="orth""    0.02    0.02</time>
   <time name="total""    1.04    1.04</time>
   <energy>
    <i name="e_fr_energy""     -2.85945104</i>
    <i name="e_wo_entrp""     -2.85852224</i>
    <i name="e_0_energy""     -2.85898664</i>
   </energy>
  </scstep>
  <scstep>
   <time name="diag""    0.17    0.17</time>
   <time name="diis""    0.48    0.48</time>
   <time name="orth""    0.02    0.02</time>
   <time name="total""    0.72    0.72</time>
   <energy>
    <i name="alphaZ""    123.73329044</i>
    <i name="ewald""  -1017.93440247</i>
    <i name="hartreedc""    -98.12453438</i>
    <i name="XCdc""     15.17666977</i>
    <i name="pawpsdc""    779.39287969</i>
    <i name="pawaedc""   -759.81888017</i>
    <i name="eentropy""     -0.00092851</i>
    <i name="bandstr""     27.63883027</i>
    <i name="atom""    927.07761444</i>
    <i name="e_fr_energy""     -2.85946092</i>
    <i name="e_wo_entrp""     -2.85853241</i>
    <i name="e_0_energy""     -2.85899667</i>
   </energy>
  </scstep>
  <structure>
   <crystal>
    <varray name="basis"">
     <v>       0.00000000      1.96195000      1.96195000</v>
     <v>       1.96195000      0.00000000      1.96195000</v>
     <v>       1.96195000      1.96195000      0.00000000</v>
    </varray>
    <i name="volume""     15.10406345</i>
    <varray name="rec_basis"">
     <v>      -0.25484849      0.25484849      0.25484849</v>
     <v>       0.25484849     -0.25484849      0.25484849</v>
     <v>       0.25484849      0.25484849     -0.25484849</v>
    </varray>
   </crystal>
   <varray name="positions"">
    <v>       0.00000000      0.00000000      0.00000000</v>
   </varray>
  </structure>
  <varray name="forces"">
   <v>       0.00000000      0.00000000      0.00000000</v>
  </varray>
  <varray name="stress"">
   <v>     430.22057853      0.00000000      0.00000000</v>
   <v>       0.00000000    430.22057853      0.00000000</v>
   <v>       0.00000000      0.00000000    430.22057853</v>
  </varray>
  <energy>
   <i name="e_fr_energy""     -2.85946092</i>
   <i name="e_wo_entrp""     -2.85899667</i>
   <i name="e_0_energy""     -0.00092851</i>
  </energy>
 </calculation>
 <calculation>
  <scstep>
   <time name="dav""    0.92    0.92</time>
   <time name="total""    1.02    1.02</time>
   <energy>
    <i name="alphaZ""     84.18746504</i>
    <i name="ewald""   -895.30995952</i>
    <i name="hartreedc""    -86.32734882</i>
    <i name="XCdc""     11.43667277</i>
    <i name="pawpsdc""    779.78540248</i>
    <i name="pawaedc""   -760.18272434</i>
    <i name="eentropy""     -0.00252815</i>
    <i name="bandstr""    -79.86087988</i>
    <i name="atom""    927.07761444</i>
    <i name="e_fr_energy""    -19.19628601</i>
    <i name="e_wo_entrp""    -19.19375786</i>
    <i name="e_0_energy""    -19.19502193</i>
   </energy>
  </scstep>
  <scstep>
   <time name="diag""    0.17    0.17</time>
   <time name="diis""    0.74    0.75</time>
   <time name="orth""    0.02    0.02</time>
   <time name="total""    1.03    1.03</time>
   <energy>
    <i name="e_fr_energy""     -4.47988872</i>
    <i name="e_wo_entrp""     -4.47728771</i>
    <i name="e_0_energy""     -4.47858822</i>
   </energy>
  </scstep>
  <scstep>
   <time name="diag""    0.17    0.17</time>
   <time name="diis""    0.75    0.75</time>
   <time name="orth""    0.02    0.02</time>
   <time name="total""    1.03    1.04</time>
   <energy>
    <i name="e_fr_energy""     -3.02631645</i>
    <i name="e_wo_entrp""     -3.02454457</i>
    <i name="e_0_energy""     -3.02543051</i>
   </energy>
  </scstep>
  <scstep>
   <time name="diag""    0.17    0.17</time>
   <time name="diis""    0.74    0.74</time>
   <time name="orth""    0.02    0.02</time>
   <time name="total""    1.03    1.04</time>
   <energy>
    <i name="e_fr_energy""     -2.95587439</i>
    <i name="e_wo_entrp""     -2.95402338</i>
    <i name="e_0_energy""     -2.95494888</i>
   </energy>
  </scstep>
  <scstep>
   <time name="diag""    0.17    0.17</time>
   <time name="diis""    0.75    0.75</time>
   <time name="orth""    0.02    0.02</time>
   <time name="total""    1.03    1.07</time>
   <energy>
    <i name="e_fr_energy""     -2.92740925</i>
    <i name="e_wo_entrp""     -2.92563278</i>
    <i name="e_0_energy""     -2.92652102</i>
   </energy>
  </scstep>
  <scstep>
   <time name="diag""    0.17    0.17</time>
   <time name="diis""    0.74    0.74</time>
   <time name="orth""    0.02    0.02</time>
   <time name="total""    1.03    1.04</time>
   <energy>
    <i name="e_fr_energy""     -2.92744053</i>
    <i name="e_wo_entrp""     -2.92566892</i>
    <i name="e_0_energy""     -2.92655472</i>
   </energy>
  </scstep>
  <scstep>
   <time name="diag""    0.17    0.17</time>
   <time name="diis""    0.64    0.64</time>
   <time name="orth""    0.02    0.02</time>
   <time name="total""    0.88    0.89</time>
   <energy>
    <i name="alphaZ""     84.18746504</i>
    <i name="ewald""   -895.30995952</i>
    <i name="hartreedc""   -149.24421603</i>
    <i name="XCdc""     13.96675935</i>
    <i name="pawpsdc""    728.77349670</i>
    <i name="pawaedc""   -707.27209460</i>
    <i name="eentropy""     -0.00177114</i>
    <i name="bandstr""     -5.10481422</i>
    <i name="atom""    927.07761444</i>
    <i name="e_fr_energy""     -2.92751999</i>
    <i name="e_wo_entrp""     -2.92574885</i>
    <i name="e_0_energy""     -2.92663442</i>
   </energy>
  </scstep>
  <structure>
   <crystal>
    <varray name="basis"">
     <v>       0.00000000      2.23066479      2.23066479</v>
     <v>       2.23066479      0.00000000      2.23066479</v>
     <v>       2.23066479      2.23066479      0.00000000</v>
    </varray>
    <i name="volume""     22.19897545</i>
    <varray name="rec_basis"">
     <v>      -0.22414843      0.22414843      0.22414843</v>
     <v>       0.22414843     -0.22414843      0.22414843</v>
     <v>       0.22414843      0.22414843     -0.22414843</v>
    </varray>
   </crystal>
   <varray name="positions"">
    <v>       0.00000000      0.00000000      0.00000000</v>
   </varray>
  </structure>
  <varray name="forces"">
   <v>       0.00000000      0.00000000      0.00000000</v>
  </varray>
  <varray name="stress"">
   <v>    -145.19898620      0.00000000      0.00000000</v>
   <v>       0.00000000   -145.19898620      0.00000000</v>
   <v>       0.00000000      0.00000000   -145.19898620</v>
  </varray>
  <energy>
   <i name="e_fr_energy""     -2.92751999</i>
   <i name="e_wo_entrp""     -2.92663442</i>
   <i name="e_0_energy""     -0.00177114</i>
  </energy>
 </calculation>
 <calculation>
  <scstep>
   <time name="dav""    0.93    0.94</time>
   <time name="total""    1.04    1.04</time>
   <energy>
    <i name="alphaZ""     96.18564740</i>
    <i name="ewald""   -935.96806056</i>
    <i name="hartreedc""   -156.08618015</i>
    <i name="XCdc""     15.41692700</i>
    <i name="pawpsdc""    728.94811100</i>
    <i name="pawaedc""   -707.43985791</i>
    <i name="eentropy""     -0.00312796</i>
    <i name="bandstr""     26.12780503</i>
    <i name="atom""    927.07761444</i>
    <i name="e_fr_energy""     -5.74112172</i>
    <i name="e_wo_entrp""     -5.73799376</i>
    <i name="e_0_energy""     -5.73955774</i>
   </energy>
  </scstep>
  <scstep>
   <time name="diag""    0.17    0.17</time>
   <time name="diis""    0.74    0.74</time>
   <time name="orth""    0.02    0.02</time>
   <time name="total""    1.03    1.05</time>
   <energy>
    <i name="e_fr_energy""     -3.17963368</i>
    <i name="e_wo_entrp""     -3.17745462</i>
    <i name="e_0_energy""     -3.17854415</i>
   </energy>
  </scstep>
  <scstep>
   <time name="diag""    0.17    0.17</time>
   <time name="diis""    0.74    0.74</time>
   <time name="orth""    0.02    0.02</time>
   <time name="total""    1.03    1.04</time>
   <energy>
    <i name="e_fr_energy""     -3.14063060</i>
    <i name="e_wo_entrp""     -3.13854280</i>
    <i name="e_0_energy""     -3.13958670</i>
   </energy>
  </scstep>
  <scstep>
   <time name="diag""    0.17    0.17</time>
   <time name="diis""    0.75    0.75</time>
   <time name="orth""    0.02    0.02</time>
   <time name="total""    1.04    1.05</time>
   <energy>
    <i name="e_fr_energy""     -3.14150953</i>
    <i name="e_wo_entrp""     -3.13940031</i>
    <i name="e_0_energy""     -3.14045492</i>
   </energy>
  </scstep>
  <scstep>
   <time name="diag""    0.17    0.17</time>
   <time name="diis""    0.75    0.75</time>
   <time name="orth""    0.02    0.02</time>
   <time name="total""    1.03    1.04</time>
   <energy>
    <i name="e_fr_energy""     -3.14116318</i>
    <i name="e_wo_entrp""     -3.13909765</i>
    <i name="e_0_energy""     -3.14013042</i>
   </energy>
  </scstep>
  <scstep>
   <time name="diag""    0.17    0.17</time>
   <time name="diis""    0.48    0.48</time>
   <time name="orth""    0.02    0.02</time>
   <time name="total""    0.72    0.73</time>
   <energy>
    <i name="alphaZ""     96.18564740</i>
    <i name="ewald""   -935.96806056</i>
    <i name="hartreedc""   -130.49891575</i>
    <i name="XCdc""     14.29981223</i>
    <i name="pawpsdc""    739.26397464</i>
    <i name="pawaedc""   -718.28535837</i>
    <i name="eentropy""     -0.00207676</i>
    <i name="bandstr""      4.78620122</i>
    <i name="atom""    927.07761444</i>
    <i name="e_fr_energy""     -3.14116151</i>
    <i name="e_wo_entrp""     -3.13908475</i>
    <i name="e_0_energy""     -3.14012313</i>
   </energy>
  </scstep>
  <structure>
   <crystal>
    <varray name="basis"">
     <v>       0.00000000      2.13376555      2.13376555</v>
     <v>       2.13376555      0.00000000      2.13376555</v>
     <v>       2.13376555      2.13376555      0.00000000</v>
    </varray>
    <i name="volume""     19.42987879</i>
    <varray name="rec_basis"">
     <v>      -0.23432753      0.23432753      0.23432753</v>
     <v>       0.23432753     -0.23432753      0.23432753</v>
     <v>       0.23432753      0.23432753     -0.23432753</v>
    </varray>
   </crystal>
   <varray name="positions"">
    <v>       0.00000000      0.00000000      0.00000000</v>
   </varray>
  </structure>
  <varray name="forces"">
   <v>       0.00000000      0.00000000      0.00000000</v>
  </varray>
  <varray name="stress"">
   <v>     -82.32302211      0.00000000      0.00000000</v>
   <v>       0.00000000    -82.32302211      0.00000000</v>
   <v>       0.00000000      0.00000000    -82.32302211</v>
  </varray>
  <energy>
   <i name="e_fr_energy""     -3.14116151</i>
   <i name="e_wo_entrp""     -3.14012313</i>
   <i name="e_0_energy""     -0.00207676</i>
  </energy>
 </calculation>
 <calculation>
  <scstep>
   <time name="dav""    0.94    0.94</time>
   <time name="total""    1.04    1.04</time>
   <energy>
    <i name="alphaZ""    109.06943588</i>
    <i name="ewald""   -976.01979776</i>
    <i name="hartreedc""   -136.09777328</i>
    <i name="XCdc""     15.67261785</i>
    <i name="pawpsdc""    739.40931241</i>
    <i name="pawaedc""   -718.42211061</i>
    <i name="eentropy""     -0.00312713</i>
    <i name="bandstr""     34.06584827</i>
    <i name="atom""    927.07761444</i>
    <i name="e_fr_energy""     -5.24797992</i>
    <i name="e_wo_entrp""     -5.24485280</i>
    <i name="e_0_energy""     -5.24641636</i>
   </energy>
  </scstep>
  <scstep>
   <time name="diag""    0.17    0.17</time>
   <time name="diis""    0.75    0.75</time>
   <time name="orth""    0.02    0.02</time>
   <time name="total""    1.04    1.04</time>
   <energy>
    <i name="e_fr_energy""     -3.22447220</i>
    <i name="e_wo_entrp""     -3.22330327</i>
    <i name="e_0_energy""     -3.22388774</i>
   </energy>
  </scstep>
  <scstep>
   <time name="diag""    0.17    0.17</time>
   <time name="diis""    0.75    0.75</time>
   <time name="orth""    0.02    0.02</time>
   <time name="total""    1.04    1.04</time>
   <energy>
    <i name="e_fr_energy""     -3.15964034</i>
    <i name="e_wo_entrp""     -3.15865020</i>
    <i name="e_0_energy""     -3.15914527</i>
   </energy>
  </scstep>
  <scstep>
   <time name="diag""    0.17    0.17</time>
   <time name="diis""    0.74    0.74</time>
   <time name="orth""    0.02    0.02</time>
   <time name="total""    1.03    1.04</time>
   <energy>
    <i name="e_fr_energy""     -3.15938161</i>
    <i name="e_wo_entrp""     -3.15842875</i>
    <i name="e_0_energy""     -3.15890518</i>
   </energy>
  </scstep>
  <scstep>
   <time name="diag""    0.17    0.17</time>
   <time name="diis""    0.57    0.57</time>
   <time name="orth""    0.02    0.02</time>
   <time name="total""    0.81    0.81</time>
   <energy>
    <i name="alphaZ""    109.06943588</i>
    <i name="ewald""   -976.01979776</i>
    <i name="hartreedc""   -113.66195429</i>
    <i name="XCdc""     14.68813634</i>
    <i name="pawpsdc""    754.79232940</i>
    <i name="pawaedc""   -734.47990264</i>
    <i name="eentropy""     -0.00095289</i>
    <i name="bandstr""     15.37573551</i>
    <i name="atom""    927.07761444</i>
    <i name="e_fr_energy""     -3.15935603</i>
    <i name="e_wo_entrp""     -3.15840313</i>
    <i name="e_0_energy""     -3.15887958</i>
   </energy>
  </scstep>
  <structure>
   <crystal>
    <varray name="basis"">
     <v>       0.00000000      2.04620481      2.04620481</v>
     <v>       2.04620481      0.00000000      2.04620481</v>
     <v>       2.04620481      2.04620481      0.00000000</v>
    </varray>
    <i name="volume""     17.13473124</i>
    <varray name="rec_basis"">
     <v>      -0.24435482      0.24435482      0.24435482</v>
     <v>       0.24435482     -0.24435482      0.24435482</v>
     <v>       0.24435482      0.24435482     -0.24435482</v>
    </varray>
   </crystal>
   <varray name="positions"">
    <v>       0.00000000      0.00000000      0.00000000</v>
   </varray>
  </structure>
  <varray name="forces"">
   <v>       0.00000000      0.00000000      0.00000000</v>
  </varray>
  <varray name="stress"">
   <v>      80.92728696      0.00000000      0.00000000</v>
   <v>       0.00000000     80.92728696      0.00000000</v>
   <v>       0.00000000      0.00000000     80.92728696</v>
  </varray>
  <energy>
   <i name="e_fr_energy""     -3.15935603</i>
   <i name="e_wo_entrp""     -3.15887958</i>
   <i name="e_0_energy""     -0.00095289</i>
  </energy>
 </calculation>
 <calculation>
  <scstep>
   <time name="dav""    0.94    0.94</time>
   <time name="total""    1.04    1.04</time>
   <energy>
    <i name="alphaZ""    102.95242225</i>
    <i name="ewald""   -957.42139408</i>
    <i name="hartreedc""   -111.55489014</i>
    <i name="XCdc""     14.08658183</i>
    <i name="pawpsdc""    755.15725724</i>
    <i name="pawaedc""   -734.79677371</i>
    <i name="eentropy""     -0.00177157</i>
    <i name="bandstr""      0.89782270</i>
    <i name="atom""    927.07761444</i>
    <i name="e_fr_energy""     -3.60313104</i>
    <i name="e_wo_entrp""     -3.60135947</i>
    <i name="e_0_energy""     -3.60224525</i>
   </energy>
  </scstep>
  <scstep>
   <time name="diag""    0.17    0.17</time>
   <time name="diis""    0.76    0.76</time>
   <time name="orth""    0.02    0.02</time>
   <time name="total""    1.05    1.06</time>
   <energy>
    <i name="e_fr_energy""     -3.19599546</i>
    <i name="e_wo_entrp""     -3.19395696</i>
    <i name="e_0_energy""     -3.19497621</i>
   </energy>
  </scstep>
  <scstep>
   <time name="diag""    0.17    0.17</time>
   <time name="diis""    0.75    0.75</time>
   <time name="orth""    0.02    0.02</time>
   <time name="total""    1.04    1.05</time>
   <energy>
    <i name="e_fr_energy""     -3.18136740</i>
    <i name="e_wo_entrp""     -3.17984490</i>
    <i name="e_0_energy""     -3.18060615</i>
   </energy>
  </scstep>
  <scstep>
   <time name="diag""    0.17    0.17</time>
   <time name="diis""    0.75    0.76</time>
   <time name="orth""    0.02    0.02</time>
   <time name="total""    1.05    1.06</time>
   <energy>
    <i name="e_fr_energy""     -3.18071774</i>
    <i name="e_wo_entrp""     -3.17917981</i>
    <i name="e_0_energy""     -3.17994878</i>
   </energy>
  </scstep>
  <scstep>
   <time name="diag""    0.17    0.17</time>
   <time name="diis""    0.51    0.51</time>
   <time name="orth""    0.02    0.02</time>
   <time name="total""    0.75    0.76</time>
   <energy>
    <i name="alphaZ""    102.95242225</i>
    <i name="ewald""   -957.42139408</i>
    <i name="hartreedc""   -121.28500449</i>
    <i name="XCdc""     14.50037299</i>
    <i name="pawpsdc""    747.15705181</i>
    <i name="pawaedc""   -726.47783591</i>
    <i name="eentropy""     -0.00151801</i>
    <i name="bandstr""     10.31758439</i>
    <i name="atom""    927.07761444</i>
    <i name="e_fr_energy""     -3.18070661</i>
    <i name="e_wo_entrp""     -3.17918860</i>
    <i name="e_0_energy""     -3.17994760</i>
   </energy>
  </scstep>
  <structure>
   <crystal>
    <varray name="basis"">
     <v>       0.00000000      2.08595339      2.08595339</v>
     <v>       2.08595339      0.00000000      2.08595339</v>
     <v>       2.08595339      2.08595339      0.00000000</v>
    </varray>
    <i name="volume""     18.15280718</i>
    <varray name="rec_basis"">
     <v>      -0.23969855      0.23969855      0.23969855</v>
     <v>       0.23969855     -0.23969855      0.23969855</v>
     <v>       0.23969855      0.23969855     -0.23969855</v>
    </varray>
   </crystal>
   <varray name="positions"">
    <v>       0.00000000      0.00000000      0.00000000</v>
   </varray>
  </structure>
  <varray name="forces"">
   <v>       0.00000000      0.00000000      0.00000000</v>
  </varray>
  <varray name="stress"">
   <v>     -11.89837606      0.00000000      0.00000000</v>
   <v>       0.00000000    -11.89837606      0.00000000</v>
   <v>       0.00000000      0.00000000    -11.89837606</v>
  </varray>
  <energy>
   <i name="e_fr_energy""     -3.18070661</i>
   <i name="e_wo_entrp""     -3.17994760</i>
   <i name="e_0_energy""     -0.00151801</i>
  </energy>
 </calculation>
 <calculation>
  <scstep>
   <time name="dav""    0.94    0.94</time>
   <time name="total""    1.04    1.05</time>
   <energy>
    <i name="alphaZ""    103.76311810</i>
    <i name="ewald""   -959.92788872</i>
    <i name="hartreedc""   -121.55560114</i>
    <i name="XCdc""     14.58151453</i>
    <i name="pawpsdc""    746.86196999</i>
    <i name="pawaedc""   -726.20330169</i>
    <i name="eentropy""     -0.00113896</i>
    <i name="bandstr""     12.21461392</i>
    <i name="atom""    927.07761444</i>
    <i name="e_fr_energy""     -3.18909953</i>
    <i name="e_wo_entrp""     -3.18796057</i>
    <i name="e_0_energy""     -3.18853005</i>
   </energy>
  </scstep>
  <scstep>
   <time name="diag""    0.17    0.17</time>
   <time name="diis""    0.75    0.75</time>
   <time name="orth""    0.02    0.02</time>
   <time name="total""    1.04    1.05</time>
   <energy>
    <i name="e_fr_energy""     -3.18140729</i>
    <i name="e_wo_entrp""     -3.18010266</i>
    <i name="e_0_energy""     -3.18075498</i>
   </energy>
  </scstep>
  <scstep>
   <time name="diag""    0.17    0.17</time>
   <time name="diis""    0.72    0.72</time>
   <time name="orth""    0.02    0.02</time>
   <time name="total""    1.01    1.02</time>
   <energy>
    <i name="e_fr_energy""     -3.18116288</i>
    <i name="e_wo_entrp""     -3.17980556</i>
    <i name="e_0_energy""     -3.18048422</i>
   </energy>
  </scstep>
  <scstep>
   <time name="diag""    0.17    0.17</time>
   <time name="diis""    0.48    0.48</time>
   <time name="orth""    0.02    0.02</time>
   <time name="total""    0.72    0.73</time>
   <energy>
    <i name="alphaZ""    103.76311810</i>
    <i name="ewald""   -959.92788872</i>
    <i name="hartreedc""   -120.19938959</i>
    <i name="XCdc""     14.52317876</i>
    <i name="pawpsdc""    747.81353601</i>
    <i name="pawaedc""   -727.20025416</i>
    <i name="eentropy""     -0.00135684</i>
    <i name="bandstr""     10.97028024</i>
    <i name="atom""    927.07761444</i>
    <i name="e_fr_energy""     -3.18116176</i>
    <i name="e_wo_entrp""     -3.17980492</i>
    <i name="e_0_energy""     -3.18048334</i>
   </energy>
  </scstep>
  <structure>
   <crystal>
    <varray name="basis"">
     <v>       0.00000000      2.08050670      2.08050670</v>
     <v>       2.08050670      0.00000000      2.08050670</v>
     <v>       2.08050670      2.08050670      0.00000000</v>
    </varray>
    <i name="volume""     18.01098024</i>
    <varray name="rec_basis"">
     <v>      -0.24032607      0.24032607      0.24032607</v>
     <v>       0.24032607     -0.24032607      0.24032607</v>
     <v>       0.24032607      0.24032607     -0.24032607</v>
    </varray>
   </crystal>
   <varray name="positions"">
    <v>       0.00000000      0.00000000      0.00000000</v>
   </varray>
  </structure>
  <varray name="forces"">
   <v>       0.00000000      0.00000000      0.00000000</v>
  </varray>
  <varray name="stress"">
   <v>      -1.17881771      0.00000000      0.00000000</v>
   <v>       0.00000000     -1.17881771      0.00000000</v>
   <v>       0.00000000      0.00000000     -1.17881771</v>
  </varray>
  <energy>
   <i name="e_fr_energy""     -3.18116176</i>
   <i name="e_wo_entrp""     -3.18048334</i>
   <i name="e_0_energy""     -0.00135684</i>
  </energy>
  <eigenvalues>
   <array>
    <dimension dim="1">band</dimension>
    <dimension dim="2">kpoint</dimension>
    <dimension dim="3">spin</dimension>
    <field>eigene</field>
    <field>occ</field>
    <set>
     <set comment="spin 1">
      <set comment="kpoint 1">
       <r>  -4.1246  1.0000</r>
       <r>   0.5300  1.0000</r>
       <r>   0.6122  1.0000</r>
       <r>   0.6122  1.0000</r>
       <r>   1.9290  1.0000</r>
       <r>   1.9290  1.0000</r>
       <r>  20.5060  0.0000</r>
       <r>  22.9129  0.0000</r>
       <r>  24.0208  0.0000</r>
      </set>
      <set comment="kpoint 2">
       <r>  -3.4646  1.0000</r>
       <r>   0.3423  1.0000</r>
       <r>   0.7998  1.0000</r>
       <r>   0.8201  1.0000</r>
       <r>   1.7469  1.0000</r>
       <r>   2.0357  1.0000</r>
       <r>  19.9254  0.0000</r>
       <r>  21.0743  0.0000</r>
       <r>  23.3818  0.0000</r>
      </set>
      <set comment="kpoint 3">
       <r>  -2.2391  1.0000</r>
       <r>   0.4574  1.0000</r>
       <r>   0.8313  1.0000</r>
       <r>   0.8723  1.0000</r>
       <r>   1.9740  1.0000</r>
       <r>   2.5082  1.0000</r>
       <r>  15.1631  0.0000</r>
       <r>  20.8083  0.0000</r>
       <r>  22.8584  0.0000</r>
      </set>
      <set comment="kpoint 4">
       <r>  -1.7483  1.0000</r>
       <r>   0.5754  1.0000</r>
       <r>   0.6722  1.0000</r>
       <r>   2.0084  1.0000</r>
       <r>   2.6653  1.0000</r>
       <r>   3.5123  1.0000</r>
       <r>  10.3360  0.0000</r>
       <r>  19.9884  0.0000</r>
       <r>  21.5604  0.0000</r>
      </set>
      <set comment="kpoint 5">
       <r>  -1.7376  1.0000</r>
       <r>   0.4838  1.0000</r>
       <r>   0.6173  1.0000</r>
       <r>   2.5318  1.0000</r>
       <r>   3.0439  1.0000</r>
       <r>   4.7800  0.9466</r>
       <r>   7.9560  0.0000</r>
       <r>  19.7493  0.0000</r>
       <r>  21.6096  0.0000</r>
      </set>
      <set comment="kpoint 6">
       <r>  -1.8092  1.0000</r>
       <r>   0.6205  1.0000</r>
       <r>   0.7629  1.0000</r>
       <r>   1.3391  1.0000</r>
       <r>   2.7755  1.0000</r>
       <r>   2.8290  1.0000</r>
       <r>  11.8670  0.0000</r>
       <r>  20.3818  0.0000</r>
       <r>  22.1107  0.0000</r>
      </set>
      <set comment="kpoint 7">
       <r>  -2.6361  1.0000</r>
       <r>   0.2855  1.0000</r>
       <r>   0.8677  1.0000</r>
       <r>   0.9119  1.0000</r>
       <r>   1.8864  1.0000</r>
       <r>   2.2275  1.0000</r>
       <r>  16.8330  0.0000</r>
       <r>  21.3258  0.0000</r>
       <r>  23.0624  0.0000</r>
      </set>
      <set comment="kpoint 8">
       <r>  -3.7854  1.0000</r>
       <r>   0.3861  1.0000</r>
       <r>   0.7450  1.0000</r>
       <r>   0.7503  1.0000</r>
       <r>   1.7669  1.0000</r>
       <r>   2.0129  1.0000</r>
       <r>  20.7268  0.0000</r>
       <r>  21.7454  0.0000</r>
       <r>  23.4758  0.0000</r>
      </set>
      <set comment="kpoint 9">
       <r>  -3.1399  1.0000</r>
       <r>   0.1085  1.0000</r>
       <r>   0.9975  1.0000</r>
       <r>   1.0196  1.0000</r>
       <r>   1.5340  1.0000</r>
       <r>   2.1707  1.0000</r>
       <r>  20.2585  0.0000</r>
       <r>  21.4606  0.0000</r>
       <r>  22.2347  0.0000</r>
      </set>
      <set comment="kpoint 10">
       <r>  -2.0578  1.0000</r>
       <r>  -0.1392  1.0000</r>
       <r>   0.8236  1.0000</r>
       <r>   1.3468  1.0000</r>
       <r>   1.8296  1.0000</r>
       <r>   2.6041  1.0000</r>
       <r>  17.1601  0.0000</r>
       <r>  19.6019  0.0000</r>
       <r>  22.1482  0.0000</r>
      </set>
      <set comment="kpoint 11">
       <r>  -1.2913  1.0000</r>
       <r>   0.3493  1.0000</r>
       <r>   0.5015  1.0000</r>
       <r>   1.2171  1.0000</r>
       <r>   2.7369  1.0000</r>
       <r>   3.8598  1.0000</r>
       <r>  12.2055  0.0000</r>
       <r>  18.9484  0.0000</r>
       <r>  20.0695  0.0000</r>
      </set>
      <set comment="kpoint 12">
       <r>  -1.2401  1.0000</r>
       <r>   0.1940  1.0000</r>
       <r>   1.0305  1.0000</r>
       <r>   1.4271  1.0000</r>
       <r>   2.9843  1.0000</r>
       <r>   6.4311  0.0000</r>
       <r>   8.0408  0.0000</r>
       <r>  18.4253  0.0000</r>
       <r>  19.3069  0.0000</r>
      </set>
      <set comment="kpoint 13">
       <r>  -1.1994  1.0000</r>
       <r>   0.3069  1.0000</r>
       <r>   0.9245  1.0000</r>
       <r>   1.1577  1.0000</r>
       <r>   2.5687  1.0000</r>
       <r>   4.7112  0.9951</r>
       <r>  10.7731  0.0000</r>
       <r>  17.7712  0.0000</r>
       <r>  20.4685  0.0000</r>
      </set>
      <set comment="kpoint 14">
       <r>  -1.6460  1.0000</r>
       <r>   0.0163  1.0000</r>
       <r>   0.6783  1.0000</r>
       <r>   1.3028  1.0000</r>
       <r>   1.7464  1.0000</r>
       <r>   3.1488  1.0000</r>
       <r>  15.4484  0.0000</r>
       <r>  18.2395  0.0000</r>
       <r>  22.1990  0.0000</r>
      </set>
      <set comment="kpoint 15">
       <r>  -2.8563  1.0000</r>
       <r>   0.1469  1.0000</r>
       <r>   0.9131  1.0000</r>
       <r>   1.0181  1.0000</r>
       <r>   1.6295  1.0000</r>
       <r>   2.2605  1.0000</r>
       <r>  18.5538  0.0000</r>
       <r>  20.6492  0.0000</r>
       <r>  23.0198  0.0000</r>
      </set>
      <set comment="kpoint 16">
       <r>  -1.5491  1.0000</r>
       <r>  -0.5879  1.0000</r>
       <r>   1.1849  1.0000</r>
       <r>   1.8672  1.0000</r>
       <r>   2.2342  1.0000</r>
       <r>   2.6224  1.0000</r>
       <r>  17.4851  0.0000</r>
       <r>  18.7524  0.0000</r>
       <r>  19.6754  0.0000</r>
      </set>
      <set comment="kpoint 17">
       <r>  -1.1045  1.0000</r>
       <r>  -0.7149  1.0000</r>
       <r>   1.1646  1.0000</r>
       <r>   2.2164  1.0000</r>
       <r>   2.7984  1.0000</r>
       <r>   4.0057  1.0000</r>
       <r>  14.1494  0.0000</r>
       <r>  16.5866  0.0000</r>
       <r>  17.4429  0.0000</r>
      </set>
      <set comment="kpoint 18">
       <r>  -0.9248  1.0000</r>
       <r>  -0.2870  1.0000</r>
       <r>   0.9479  1.0000</r>
       <r>   1.9146  1.0000</r>
       <r>   3.0557  1.0000</r>
       <r>   6.9573  0.0000</r>
       <r>   9.9704  0.0000</r>
       <r>  14.8580  0.0000</r>
       <r>  17.2881  0.0000</r>
      </set>
      <set comment="kpoint 19">
       <r>  -0.5844  1.0000</r>
       <r>   0.0492  1.0000</r>
       <r>   0.5537  1.0000</r>
       <r>   1.6878  1.0000</r>
       <r>   2.6112  1.0000</r>
       <r>   6.7746  0.0000</r>
       <r>  10.8689  0.0000</r>
       <r>  13.3433  0.0000</r>
       <r>  18.8943  0.0000</r>
      </set>
      <set comment="kpoint 20">
       <r>  -0.7380  1.0000</r>
       <r>   0.1408  1.0000</r>
       <r>   0.3478  1.0000</r>
       <r>   1.4761  1.0000</r>
       <r>   2.1424  1.0000</r>
       <r>   4.6943  0.9976</r>
       <r>  12.7430  0.0000</r>
       <r>  15.5513  0.0000</r>
       <r>  20.6735  0.0000</r>
      </set>
      <set comment="kpoint 21">
       <r>  -1.7504  1.0000</r>
       <r>   0.4930  1.0000</r>
       <r>   0.6906  1.0000</r>
       <r>   0.9720  1.0000</r>
       <r>   2.2561  1.0000</r>
       <r>   3.0241  1.0000</r>
       <r>  13.6220  0.0000</r>
       <r>  20.0336  0.0000</r>
       <r>  21.6557  0.0000</r>
      </set>
      <set comment="kpoint 22">
       <r>  -1.4083  1.0000</r>
       <r>  -1.1211  1.0000</r>
       <r>   2.6337  1.0000</r>
       <r>   2.7283  1.0000</r>
       <r>   3.0983  1.0000</r>
       <r>   4.5581  1.0000</r>
       <r>  12.9825  0.0000</r>
       <r>  15.4617  0.0000</r>
       <r>  15.9604  0.0000</r>
      </set>
      <set comment="kpoint 23">
       <r>  -1.3075  1.0000</r>
       <r>  -1.0427  1.0000</r>
       <r>   2.2490  1.0000</r>
       <r>   2.6992  1.0000</r>
       <r>   3.2577  1.0000</r>
       <r>   7.1540  0.0000</r>
       <r>  10.4762  0.0000</r>
       <r>  13.9425  0.0000</r>
       <r>  15.3206  0.0000</r>
      </set>
      <set comment="kpoint 24">
       <r>  -0.9484  1.0000</r>
       <r>  -0.4118  1.0000</r>
       <r>   1.2132  1.0000</r>
       <r>   2.1411  1.0000</r>
       <r>   3.0174  1.0000</r>
       <r>   8.5883  0.0000</r>
       <r>   9.5638  0.0000</r>
       <r>  12.6340  0.0000</r>
       <r>  16.8703  0.0000</r>
      </set>
      <set comment="kpoint 25">
       <r>  -0.8626  1.0000</r>
       <r>   0.0241  1.0000</r>
       <r>   0.9800  1.0000</r>
       <r>   1.3730  1.0000</r>
       <r>   2.8348  1.0000</r>
       <r>   7.1393  0.0000</r>
       <r>   8.6220  0.0000</r>
       <r>  15.9091  0.0000</r>
       <r>  19.0281  0.0000</r>
      </set>
      <set comment="kpoint 26">
       <r>  -1.5537  1.0000</r>
       <r>   0.4086  1.0000</r>
       <r>   0.7806  1.0000</r>
       <r>   1.8348  1.0000</r>
       <r>   2.9231  1.0000</r>
       <r>   4.7424  0.9840</r>
       <r>   9.0480  0.0000</r>
       <r>  19.6577  0.0000</r>
       <r>  20.4636  0.0000</r>
      </set>
      <set comment="kpoint 27">
       <r>  -1.5098  1.0000</r>
       <r>  -1.2402  1.0000</r>
       <r>   2.9132  1.0000</r>
       <r>   3.0265  1.0000</r>
       <r>   3.2762  1.0000</r>
       <r>   6.2032  0.0000</r>
       <r>  10.7328  0.0000</r>
       <r>  14.7296  0.0000</r>
       <r>  15.3012  0.0000</r>
      </set>
      <set comment="kpoint 28">
       <r>  -1.2027  1.0000</r>
       <r>  -0.9287  1.0000</r>
       <r>   1.7919  1.0000</r>
       <r>   2.5876  1.0000</r>
       <r>   3.0763  1.0000</r>
       <r>   5.4667  0.0000</r>
       <r>  12.3809  0.0000</r>
       <r>  14.9132  0.0000</r>
       <r>  15.9690  0.0000</r>
      </set>
      <set comment="kpoint 29">
       <r>  -1.0005  1.0000</r>
       <r>  -0.0185  1.0000</r>
       <r>   0.6473  1.0000</r>
       <r>   1.5606  1.0000</r>
       <r>   3.0025  1.0000</r>
       <r>   5.2230  0.0000</r>
       <r>  10.9498  0.0000</r>
       <r>  17.3416  0.0000</r>
       <r>  18.1807  0.0000</r>
      </set>
      <set comment="kpoint 30">
       <r>  -1.3160  1.0000</r>
       <r>  -0.8950  1.0000</r>
       <r>   1.8859  1.0000</r>
       <r>   2.3463  1.0000</r>
       <r>   2.8653  1.0000</r>
       <r>   3.1221  1.0000</r>
       <r>  15.5410  0.0000</r>
       <r>  17.0139  0.0000</r>
       <r>  17.1655  0.0000</r>
      </set>
      <set comment="kpoint 31">
       <r>  -1.3371  1.0000</r>
       <r>  -0.4411  1.0000</r>
       <r>   0.7591  1.0000</r>
       <r>   1.7587  1.0000</r>
       <r>   2.3428  1.0000</r>
       <r>   3.0959  1.0000</r>
       <r>  15.7027  0.0000</r>
       <r>  18.1467  0.0000</r>
       <r>  19.8703  0.0000</r>
      </set>
      <set comment="kpoint 32">
       <r>  -2.2927  1.0000</r>
       <r>  -0.2367  1.0000</r>
       <r>   1.0651  1.0000</r>
       <r>   1.4030  1.0000</r>
       <r>   1.6582  1.0000</r>
       <r>   2.3825  1.0000</r>
       <r>  19.0190  0.0000</r>
       <r>  20.5306  0.0000</r>
       <r>  21.6678  0.0000</r>
      </set>
      <set comment="kpoint 33">
       <r>  -3.1757  1.0000</r>
       <r>   0.3687  1.0000</r>
       <r>   0.8213  1.0000</r>
       <r>   0.8213  1.0000</r>
       <r>   1.9300  1.0000</r>
       <r>   1.9300  1.0000</r>
       <r>  18.3764  0.0000</r>
       <r>  21.3642  0.0000</r>
       <r>  24.6049  0.0000</r>
      </set>
      <set comment="kpoint 34">
       <r>  -2.3273  1.0000</r>
       <r>   0.1351  1.0000</r>
       <r>   0.8575  1.0000</r>
       <r>   1.1019  1.0000</r>
       <r>   1.5773  1.0000</r>
       <r>   2.6171  1.0000</r>
       <r>  16.9338  0.0000</r>
       <r>  19.5143  0.0000</r>
       <r>  23.3188  0.0000</r>
      </set>
      <set comment="kpoint 35">
       <r>  -1.1701  1.0000</r>
       <r>   0.1351  1.0000</r>
       <r>   0.6055  1.0000</r>
       <r>   1.2620  1.0000</r>
       <r>   1.8052  1.0000</r>
       <r>   3.8395  1.0000</r>
       <r>  13.9769  0.0000</r>
       <r>  16.8652  0.0000</r>
       <r>  22.0519  0.0000</r>
      </set>
      <set comment="kpoint 36">
       <r>  -1.0607  1.0000</r>
       <r>   0.2019  1.0000</r>
       <r>   1.1238  1.0000</r>
       <r>   1.1891  1.0000</r>
       <r>   2.6308  1.0000</r>
       <r>   5.7579  0.0000</r>
       <r>   9.5871  0.0000</r>
       <r>  16.7317  0.0000</r>
       <r>  21.1660  0.0000</r>
      </set>
      <set comment="kpoint 37">
       <r>  -1.1644  1.0000</r>
       <r>   0.1613  1.0000</r>
       <r>   1.0288  1.0000</r>
       <r>   1.2009  1.0000</r>
       <r>   3.0864  1.0000</r>
       <r>   5.7652  0.0000</r>
       <r>   9.2740  0.0000</r>
       <r>  17.9133  0.0000</r>
       <r>  19.6466  0.0000</r>
      </set>
      <set comment="kpoint 38">
       <r>  -1.3357  1.0000</r>
       <r>  -0.1229  1.0000</r>
       <r>   0.6315  1.0000</r>
       <r>   1.3968  1.0000</r>
       <r>   2.8685  1.0000</r>
       <r>   3.1520  1.0000</r>
       <r>  13.8912  0.0000</r>
       <r>  19.5116  0.0000</r>
       <r>  19.9114  0.0000</r>
      </set>
      <set comment="kpoint 39">
       <r>  -1.9465  1.0000</r>
       <r>   0.1017  1.0000</r>
       <r>   0.7442  1.0000</r>
       <r>   1.1034  1.0000</r>
       <r>   2.2740  1.0000</r>
       <r>   2.5632  1.0000</r>
       <r>  15.3457  0.0000</r>
       <r>  21.1829  0.0000</r>
       <r>  21.2336  0.0000</r>
      </set>
      <set comment="kpoint 40">
       <r>  -1.0051  1.0000</r>
       <r>  -0.1508  1.0000</r>
       <r>   0.3995  1.0000</r>
       <r>   1.6494  1.0000</r>
       <r>   2.1972  1.0000</r>
       <r>   3.8672  1.0000</r>
       <r>  14.0715  0.0000</r>
       <r>  16.8915  0.0000</r>
       <r>  20.1489  0.0000</r>
      </set>
      <set comment="kpoint 41">
       <r>  -0.4010  1.0000</r>
       <r>  -0.0660  1.0000</r>
       <r>   0.1845  1.0000</r>
       <r>   1.7961  1.0000</r>
       <r>   2.5778  1.0000</r>
       <r>   5.8597  0.0000</r>
       <r>  11.7343  0.0000</r>
       <r>  14.3806  0.0000</r>
       <r>  18.2760  0.0000</r>
      </set>
      <set comment="kpoint 42">
       <r>  -0.6068  1.0000</r>
       <r>  -0.1636  1.0000</r>
       <r>   0.6473  1.0000</r>
       <r>   1.7019  1.0000</r>
       <r>   2.9483  1.0000</r>
       <r>   7.8132  0.0000</r>
       <r>   8.9588  0.0000</r>
       <r>  15.0524  0.0000</r>
       <r>  16.9170  0.0000</r>
      </set>
      <set comment="kpoint 43">
       <r>  -0.7499  1.0000</r>
       <r>  -0.3537  1.0000</r>
       <r>   0.4820  1.0000</r>
       <r>   2.0530  1.0000</r>
       <r>   2.6527  1.0000</r>
       <r>   4.9494  0.2166</r>
       <r>  12.8019  0.0000</r>
       <r>  15.5737  0.0000</r>
       <r>  17.7612  0.0000</r>
      </set>
      <set comment="kpoint 44">
       <r>  -1.0975  1.0000</r>
       <r>  -0.4068  1.0000</r>
       <r>   0.9497  1.0000</r>
       <r>   1.7664  1.0000</r>
       <r>   3.0806  1.0000</r>
       <r>   4.4429  1.0000</r>
       <r>  12.4985  0.0000</r>
       <r>  17.2689  0.0000</r>
       <r>  18.0823  0.0000</r>
      </set>
      <set comment="kpoint 45">
       <r>  -0.8397  1.0000</r>
       <r>  -0.5622  1.0000</r>
       <r>   0.9408  1.0000</r>
       <r>   2.2973  1.0000</r>
       <r>   3.0102  1.0000</r>
       <r>   6.4835  0.0000</r>
       <r>  11.6125  0.0000</r>
       <r>  14.2416  0.0000</r>
       <r>  15.8212  0.0000</r>
      </set>
      <set comment="kpoint 46">
       <r>  -0.5828  1.0000</r>
       <r>  -0.1656  1.0000</r>
       <r>   0.5126  1.0000</r>
       <r>   1.9146  1.0000</r>
       <r>   3.2489  1.0000</r>
       <r>   8.9693  0.0000</r>
       <r>  10.5407  0.0000</r>
       <r>  12.1828  0.0000</r>
       <r>  14.6722  0.0000</r>
      </set>
      <set comment="kpoint 47">
       <r>  -0.4231  1.0000</r>
       <r>  -0.1729  1.0000</r>
       <r>   0.3067  1.0000</r>
       <r>   1.9438  1.0000</r>
       <r>   2.9796  1.0000</r>
       <r>   7.3872  0.0000</r>
       <r>  10.9672  0.0000</r>
       <r>  13.3410  0.0000</r>
       <r>  16.0105  0.0000</r>
      </set>
      <set comment="kpoint 48">
       <r>  -1.2049  1.0000</r>
       <r>  -0.7908  1.0000</r>
       <r>   1.8858  1.0000</r>
       <r>   2.4560  1.0000</r>
       <r>   3.1157  1.0000</r>
       <r>   7.8767  0.0000</r>
       <r>   9.9755  0.0000</r>
       <r>  13.0420  0.0000</r>
       <r>  16.5286  0.0000</r>
      </set>
      <set comment="kpoint 49">
       <r>  -0.9509  1.0000</r>
       <r>  -0.6664  1.0000</r>
       <r>   1.3359  1.0000</r>
       <r>   2.2948  1.0000</r>
       <r>   3.2509  1.0000</r>
       <r>   8.3012  0.0000</r>
       <r>  10.2450  0.0000</r>
       <r>  13.0962  0.0000</r>
       <r>  14.9567  0.0000</r>
      </set>
      <set comment="kpoint 50">
       <r>  -1.1335  1.0000</r>
       <r>  -0.6582  1.0000</r>
       <r>   1.5017  1.0000</r>
       <r>   2.1555  1.0000</r>
       <r>   3.1565  1.0000</r>
       <r>   6.0872  0.0000</r>
       <r>  11.2250  0.0000</r>
       <r>  14.7542  0.0000</r>
       <r>  17.0611  0.0000</r>
      </set>
      <set comment="kpoint 51">
       <r>  -2.0645  1.0000</r>
       <r>   0.7475  1.0000</r>
       <r>   0.7475  1.0000</r>
       <r>   1.0292  1.0000</r>
       <r>   2.4028  1.0000</r>
       <r>   2.4028  1.0000</r>
       <r>  13.4331  0.0000</r>
       <r>  20.6964  0.0000</r>
       <r>  23.8439  0.0000</r>
      </set>
      <set comment="kpoint 52">
       <r>  -1.4968  1.0000</r>
       <r>   0.5022  1.0000</r>
       <r>   0.9180  1.0000</r>
       <r>   0.9993  1.0000</r>
       <r>   2.2506  1.0000</r>
       <r>   3.7329  1.0000</r>
       <r>  12.0963  0.0000</r>
       <r>  18.8668  0.0000</r>
       <r>  21.4081  0.0000</r>
      </set>
      <set comment="kpoint 53">
       <r>  -0.6333  1.0000</r>
       <r>   0.1799  1.0000</r>
       <r>   0.5369  1.0000</r>
       <r>   1.4574  1.0000</r>
       <r>   2.2929  1.0000</r>
       <r>   5.6213  0.0000</r>
       <r>  11.7025  0.0000</r>
       <r>  14.3167  0.0000</r>
       <r>  21.6166  0.0000</r>
      </set>
      <set comment="kpoint 54">
       <r>  -0.8305  1.0000</r>
       <r>  -0.0856  1.0000</r>
       <r>   0.9233  1.0000</r>
       <r>   1.8862  1.0000</r>
       <r>   2.7656  1.0000</r>
       <r>   7.7888  0.0000</r>
       <r>  10.0272  0.0000</r>
       <r>  12.7363  0.0000</r>
       <r>  18.6574  0.0000</r>
      </set>
      <set comment="kpoint 55">
       <r>  -1.4920  1.0000</r>
       <r>   0.4121  1.0000</r>
       <r>   0.9204  1.0000</r>
       <r>   1.1988  1.0000</r>
       <r>   3.0204  1.0000</r>
       <r>   4.0741  1.0000</r>
       <r>  10.4710  0.0000</r>
       <r>  19.9592  0.0000</r>
       <r>  20.6935  0.0000</r>
      </set>
      <set comment="kpoint 56">
       <r>  -0.8768  1.0000</r>
       <r>   0.0345  1.0000</r>
       <r>   0.7918  1.0000</r>
       <r>   1.4202  1.0000</r>
       <r>   2.8463  1.0000</r>
       <r>   6.1198  0.0000</r>
       <r>   9.6703  0.0000</r>
       <r>  16.7285  0.0000</r>
       <r>  18.3968  0.0000</r>
      </set>
      <set comment="kpoint 57">
       <r>  -0.5542  1.0000</r>
       <r>  -0.1273  1.0000</r>
       <r>   0.5418  1.0000</r>
       <r>   1.8626  1.0000</r>
       <r>   2.9793  1.0000</r>
       <r>   8.1390  0.0000</r>
       <r>  10.2708  0.0000</r>
       <r>  12.6980  0.0000</r>
       <r>  16.4731  0.0000</r>
      </set>
      <set comment="kpoint 58">
       <r>  -0.9210  1.0000</r>
       <r>  -0.0259  1.0000</r>
       <r>   0.9420  1.0000</r>
       <r>   1.5599  1.0000</r>
       <r>   2.9703  1.0000</r>
       <r>   7.7109  0.0000</r>
       <r>   8.4121  0.0000</r>
       <r>  15.2908  0.0000</r>
       <r>  18.9771  0.0000</r>
      </set>
      <set comment="kpoint 59">
       <r>  -1.8335  1.0000</r>
       <r>   0.5684  1.0000</r>
       <r>   0.5684  1.0000</r>
       <r>   2.9513  1.0000</r>
       <r>   2.9513  1.0000</r>
       <r>   3.4769  1.0000</r>
       <r>   8.9079  0.0000</r>
       <r>  19.8095  0.0000</r>
       <r>  22.3722  0.0000</r>
      </set>
      <set comment="kpoint 60">
       <r>  -1.4691  1.0000</r>
       <r>   0.3413  1.0000</r>
       <r>   0.8128  1.0000</r>
       <r>   1.8910  1.0000</r>
       <r>   2.9233  1.0000</r>
       <r>   5.7503  0.0000</r>
       <r>   8.0238  0.0000</r>
       <r>  18.9818  0.0000</r>
       <r>  20.7294  0.0000</r>
      </set>
     </set>
    </set>
   </array>
  </eigenvalues>
  <dos>
   <i name="efermi""      4.89402982</i>
   <total>
    <array>
     <dimension dim="1">gridpoints</dimension>
     <dimension dim="2">spin</dimension>
     <field>energy</field>
     <field>total</field>
     <field>integrated</field>
     <set>
      <set comment="spin 1">
       <r>  -5.5611   0.0000   0.0000 </r>
       <r>  -5.4557   0.0000   0.0000 </r>
       <r>  -5.3504   0.0000   0.0000 </r>
       <r>  -5.2451   0.0000   0.0000 </r>
       <r>  -5.1397   0.0000   0.0000 </r>
       <r>  -5.0344   0.0000   0.0000 </r>
       <r>  -4.9290   0.0000   0.0000 </r>
       <r>  -4.8237   0.0000   0.0000 </r>
       <r>  -4.7183   0.0000   0.0000 </r>
       <r>  -4.6130   0.0000   0.0000 </r>
       <r>  -4.5077   0.0000   0.0000 </r>
       <r>  -4.4023   0.0000   0.0000 </r>
       <r>  -4.2970   0.0005   0.0001 </r>
       <r>  -4.1916   0.0122   0.0013 </r>
       <r>  -4.0863   0.0396   0.0055 </r>
       <r>  -3.9810   0.0209   0.0077 </r>
       <r>  -3.8756   0.0234   0.0102 </r>
       <r>  -3.7703   0.1076   0.0215 </r>
       <r>  -3.6649   0.0831   0.0303 </r>
       <r>  -3.5596   0.0291   0.0333 </r>
       <r>  -3.4542   0.1044   0.0443 </r>
       <r>  -3.3489   0.0879   0.0536 </r>
       <r>  -3.2436   0.0386   0.0577 </r>
       <r>  -3.1382   0.1372   0.0721 </r>
       <r>  -3.0329   0.1180   0.0845 </r>
       <r>  -2.9275   0.0828   0.0933 </r>
       <r>  -2.8222   0.2363   0.1181 </r>
       <r>  -2.7169   0.1566   0.1346 </r>
       <r>  -2.6115   0.1240   0.1477 </r>
       <r>  -2.5062   0.0753   0.1556 </r>
       <r>  -2.4008   0.0554   0.1615 </r>
       <r>  -2.2955   0.2555   0.1884 </r>
       <r>  -2.1901   0.3022   0.2202 </r>
       <r>  -2.0848   0.2469   0.2463 </r>
       <r>  -1.9795   0.3390   0.2820 </r>
       <r>  -1.8741   0.2726   0.3107 </r>
       <r>  -1.7688   0.5172   0.3652 </r>
       <r>  -1.6634   0.7261   0.4416 </r>
       <r>  -1.5581   0.7564   0.5213 </r>
       <r>  -1.4528   0.9298   0.6193 </r>
       <r>  -1.3474   1.0175   0.7265 </r>
       <r>  -1.2421   1.6547   0.9008 </r>
       <r>  -1.1367   1.8612   1.0968 </r>
       <r>  -1.0314   1.7482   1.2810 </r>
       <r>  -0.9261   2.1198   1.5043 </r>
       <r>  -0.8207   2.0833   1.7237 </r>
       <r>  -0.7154   1.6062   1.8929 </r>
       <r>  -0.6100   1.7757   2.0800 </r>
       <r>  -0.5047   1.7532   2.2647 </r>
       <r>  -0.3993   1.4873   2.4214 </r>
       <r>  -0.2940   1.2656   2.5547 </r>
       <r>  -0.1887   1.3383   2.6957 </r>
       <r>  -0.0833   2.0796   2.9147 </r>
       <r>   0.0220   1.9950   3.1249 </r>
       <r>   0.1274   2.1164   3.3478 </r>
       <r>   0.2327   2.0527   3.5641 </r>
       <r>   0.3380   1.9376   3.7682 </r>
       <r>   0.4434   2.3902   4.0200 </r>
       <r>   0.5487   2.7287   4.3074 </r>
       <r>   0.6541   2.6887   4.5906 </r>
       <r>   0.7594   2.6917   4.8742 </r>
       <r>   0.8648   2.9891   5.1891 </r>
       <r>   0.9701   3.3423   5.5411 </r>
       <r>   1.0754   2.7652   5.8324 </r>
       <r>   1.1808   2.0470   6.0481 </r>
       <r>   1.2861   1.9474   6.2532 </r>
       <r>   1.3915   1.9258   6.4561 </r>
       <r>   1.4968   1.8065   6.6464 </r>
       <r>   1.6021   1.5095   6.8054 </r>
       <r>   1.7075   1.8684   7.0022 </r>
       <r>   1.8128   2.6557   7.2820 </r>
       <r>   1.9182   2.9224   7.5898 </r>
       <r>   2.0235   1.9940   7.7999 </r>
       <r>   2.1289   1.4262   7.9501 </r>
       <r>   2.2342   2.2735   8.1896 </r>
       <r>   2.3395   2.4935   8.4523 </r>
       <r>   2.4449   1.2626   8.5853 </r>
       <r>   2.5502   1.3514   8.7276 </r>
       <r>   2.6556   2.4202   8.9826 </r>
       <r>   2.7609   2.0604   9.1996 </r>
       <r>   2.8662   1.9805   9.4082 </r>
       <r>   2.9716   2.8215   9.7055 </r>
       <r>   3.0769   3.5769  10.0823 </r>
       <r>   3.1823   2.4478  10.3401 </r>
       <r>   3.2876   1.3462  10.4819 </r>
       <r>   3.3930   0.5185  10.5365 </r>
       <r>   3.4983   0.1632  10.5537 </r>
       <r>   3.6036   0.1406  10.5685 </r>
       <r>   3.7090   0.1182  10.5810 </r>
       <r>   3.8143   0.3922  10.6223 </r>
       <r>   3.9197   0.6747  10.6934 </r>
       <r>   4.0250   0.4804  10.7440 </r>
       <r>   4.1303   0.2890  10.7744 </r>
       <r>   4.2357   0.0625  10.7810 </r>
       <r>   4.3410   0.0192  10.7830 </r>
       <r>   4.4464   0.1115  10.7948 </r>
       <r>   4.5517   0.2004  10.8159 </r>
       <r>   4.6571   0.3896  10.8569 </r>
       <r>   4.7624   0.8003  10.9412 </r>
       <r>   4.8677   0.4889  10.9927 </r>
       <r>   4.9731   0.2747  11.0217 </r>
       <r>   5.0784   0.1591  11.0384 </r>
       <r>   5.1838   0.1346  11.0526 </r>
       <r>   5.2891   0.2412  11.0780 </r>
       <r>   5.3944   0.1402  11.0928 </r>
       <r>   5.4998   0.2472  11.1188 </r>
       <r>   5.6051   0.2234  11.1424 </r>
       <r>   5.7105   0.2850  11.1724 </r>
       <r>   5.8158   0.4947  11.2245 </r>
       <r>   5.9212   0.3752  11.2640 </r>
       <r>   6.0265   0.1718  11.2821 </r>
       <r>   6.1318   0.3688  11.3210 </r>
       <r>   6.2372   0.3448  11.3573 </r>
       <r>   6.3425   0.1452  11.3726 </r>
       <r>   6.4479   0.3496  11.4094 </r>
       <r>   6.5532   0.3987  11.4514 </r>
       <r>   6.6585   0.1096  11.4630 </r>
       <r>   6.7639   0.1779  11.4817 </r>
       <r>   6.8692   0.2551  11.5086 </r>
       <r>   6.9746   0.2641  11.5364 </r>
       <r>   7.0799   0.3101  11.5691 </r>
       <r>   7.1853   0.4930  11.6210 </r>
       <r>   7.2906   0.2798  11.6505 </r>
       <r>   7.3959   0.2251  11.6742 </r>
       <r>   7.5013   0.1774  11.6929 </r>
       <r>   7.6066   0.0404  11.6971 </r>
       <r>   7.7120   0.1625  11.7142 </r>
       <r>   7.8173   0.4580  11.7625 </r>
       <r>   7.9226   0.4931  11.8144 </r>
       <r>   8.0280   0.4986  11.8669 </r>
       <r>   8.1333   0.5279  11.9226 </r>
       <r>   8.2387   0.3389  11.9583 </r>
       <r>   8.3440   0.3118  11.9911 </r>
       <r>   8.4493   0.2467  12.0171 </r>
       <r>   8.5547   0.2725  12.0458 </r>
       <r>   8.6600   0.4773  12.0961 </r>
       <r>   8.7654   0.1922  12.1163 </r>
       <r>   8.8707   0.1169  12.1286 </r>
       <r>   8.9761   0.5269  12.1841 </r>
       <r>   9.0814   0.5886  12.2461 </r>
       <r>   9.1867   0.1974  12.2669 </r>
       <r>   9.2921   0.1213  12.2797 </r>
       <r>   9.3974   0.0848  12.2886 </r>
       <r>   9.5028   0.1201  12.3013 </r>
       <r>   9.6081   0.4324  12.3468 </r>
       <r>   9.7134   0.4277  12.3919 </r>
       <r>   9.8188   0.1386  12.4065 </r>
       <r>   9.9241   0.1799  12.4255 </r>
       <r>  10.0295   0.4608  12.4740 </r>
       <r>  10.1348   0.2647  12.5019 </r>
       <r>  10.2402   0.3599  12.5398 </r>
       <r>  10.3455   0.5603  12.5988 </r>
       <r>  10.4508   0.4516  12.6464 </r>
       <r>  10.5562   0.5704  12.7065 </r>
       <r>  10.6615   0.3039  12.7385 </r>
       <r>  10.7669   0.3564  12.7760 </r>
       <r>  10.8722   0.5621  12.8352 </r>
       <r>  10.9775   0.6651  12.9053 </r>
       <r>  11.0829   0.3482  12.9420 </r>
       <r>  11.1882   0.0982  12.9523 </r>
       <r>  11.2936   0.1190  12.9649 </r>
       <r>  11.3989   0.0359  12.9686 </r>
       <r>  11.5043   0.0298  12.9718 </r>
       <r>  11.6096   0.2247  12.9955 </r>
       <r>  11.7149   0.4635  13.0443 </r>
       <r>  11.8203   0.3909  13.0855 </r>
       <r>  11.9256   0.1819  13.1046 </r>
       <r>  12.0310   0.0925  13.1144 </r>
       <r>  12.1363   0.2983  13.1458 </r>
       <r>  12.2416   0.5476  13.2035 </r>
       <r>  12.3470   0.3485  13.2402 </r>
       <r>  12.4523   0.3055  13.2724 </r>
       <r>  12.5577   0.2614  13.2999 </r>
       <r>  12.6630   0.5025  13.3528 </r>
       <r>  12.7684   0.8516  13.4425 </r>
       <r>  12.8737   0.5436  13.4998 </r>
       <r>  12.9790   0.2432  13.5254 </r>
       <r>  13.0844   0.3932  13.5669 </r>
       <r>  13.1897   0.2976  13.5982 </r>
       <r>  13.2951   0.2577  13.6253 </r>
       <r>  13.4004   0.5060  13.6786 </r>
       <r>  13.5057   0.2342  13.7033 </r>
       <r>  13.6111   0.1929  13.7236 </r>
       <r>  13.7164   0.2117  13.7459 </r>
       <r>  13.8218   0.0966  13.7561 </r>
       <r>  13.9271   0.3438  13.7923 </r>
       <r>  14.0325   0.5416  13.8494 </r>
       <r>  14.1378   0.5367  13.9059 </r>
       <r>  14.2431   0.5263  13.9614 </r>
       <r>  14.3485   0.4826  14.0122 </r>
       <r>  14.4538   0.3305  14.0470 </r>
       <r>  14.5592   0.0971  14.0572 </r>
       <r>  14.6645   0.2430  14.0828 </r>
       <r>  14.7698   0.4890  14.1344 </r>
       <r>  14.8752   0.5736  14.1948 </r>
       <r>  14.9805   0.7068  14.2692 </r>
       <r>  15.0859   0.5047  14.3224 </r>
       <r>  15.1912   0.3121  14.3553 </r>
       <r>  15.2966   0.4827  14.4061 </r>
       <r>  15.4019   0.7095  14.4809 </r>
       <r>  15.5072   0.7410  14.5589 </r>
       <r>  15.6126   0.7854  14.6417 </r>
       <r>  15.7179   0.4921  14.6935 </r>
       <r>  15.8233   0.4399  14.7398 </r>
       <r>  15.9286   0.6665  14.8100 </r>
       <r>  16.0339   0.7662  14.8908 </r>
       <r>  16.1393   0.2750  14.9197 </r>
       <r>  16.2446   0.0204  14.9219 </r>
       <r>  16.3500   0.0196  14.9239 </r>
       <r>  16.4553   0.2062  14.9457 </r>
       <r>  16.5606   0.4858  14.9968 </r>
       <r>  16.6660   0.4624  15.0456 </r>
       <r>  16.7713   0.5489  15.1034 </r>
       <r>  16.8767   0.9369  15.2021 </r>
       <r>  16.9820   1.0084  15.3083 </r>
       <r>  17.0874   0.5377  15.3649 </r>
       <r>  17.1927   0.5378  15.4216 </r>
       <r>  17.2980   0.6566  15.4908 </r>
       <r>  17.4034   0.6482  15.5590 </r>
       <r>  17.5087   0.4614  15.6076 </r>
       <r>  17.6141   0.1679  15.6253 </r>
       <r>  17.7194   0.2240  15.6489 </r>
       <r>  17.8247   0.5043  15.7020 </r>
       <r>  17.9301   0.2855  15.7321 </r>
       <r>  18.0354   0.1782  15.7509 </r>
       <r>  18.1408   0.4780  15.8012 </r>
       <r>  18.2461   0.8360  15.8893 </r>
       <r>  18.3515   0.7223  15.9654 </r>
       <r>  18.4568   0.6396  16.0328 </r>
       <r>  18.5621   0.4556  16.0808 </r>
       <r>  18.6675   0.3235  16.1149 </r>
       <r>  18.7728   0.2644  16.1427 </r>
       <r>  18.8782   0.4715  16.1924 </r>
       <r>  18.9835   0.9188  16.2892 </r>
       <r>  19.0888   0.7275  16.3658 </r>
       <r>  19.1942   0.1799  16.3847 </r>
       <r>  19.2995   0.1862  16.4044 </r>
       <r>  19.4049   0.2330  16.4289 </r>
       <r>  19.5102   0.2819  16.4586 </r>
       <r>  19.6156   0.6415  16.5262 </r>
       <r>  19.7209   0.7628  16.6065 </r>
       <r>  19.8262   0.4997  16.6592 </r>
       <r>  19.9316   0.6775  16.7305 </r>
       <r>  20.0369   0.8449  16.8195 </r>
       <r>  20.1423   0.7178  16.8952 </r>
       <r>  20.2476   0.3933  16.9366 </r>
       <r>  20.3529   0.2632  16.9643 </r>
       <r>  20.4583   0.5456  17.0218 </r>
       <r>  20.5636   0.6861  17.0941 </r>
       <r>  20.6690   0.7478  17.1728 </r>
       <r>  20.7743   0.8214  17.2594 </r>
       <r>  20.8797   0.3124  17.2923 </r>
       <r>  20.9850   0.0669  17.2993 </r>
       <r>  21.0903   0.1656  17.3168 </r>
       <r>  21.1957   0.3727  17.3560 </r>
       <r>  21.3010   0.3853  17.3966 </r>
       <r>  21.4064   0.3516  17.4337 </r>
       <r>  21.5117   0.3634  17.4719 </r>
       <r>  21.6170   0.5644  17.5314 </r>
       <r>  21.7224   0.6675  17.6017 </r>
       <r>  21.8277   0.2617  17.6293 </r>
       <r>  21.9331   0.0448  17.6340 </r>
       <r>  22.0384   0.1498  17.6498 </r>
       <r>  22.1438   0.5212  17.7047 </r>
       <r>  22.2491   0.6380  17.7719 </r>
       <r>  22.3544   0.2497  17.7982 </r>
       <r>  22.4598   0.0534  17.8038 </r>
       <r>  22.5651   0.0080  17.8047 </r>
       <r>  22.6705   0.0011  17.8048 </r>
       <r>  22.7758   0.0282  17.8078 </r>
       <r>  22.8811   0.1467  17.8232 </r>
       <r>  22.9865   0.2753  17.8522 </r>
       <r>  23.0918   0.3686  17.8910 </r>
       <r>  23.1972   0.1459  17.9064 </r>
       <r>  23.3025   0.1201  17.9191 </r>
       <r>  23.4079   0.2584  17.9463 </r>
       <r>  23.5132   0.2134  17.9688 </r>
       <r>  23.6185   0.0692  17.9760 </r>
       <r>  23.7239   0.0082  17.9769 </r>
       <r>  23.8292   0.0280  17.9799 </r>
       <r>  23.9346   0.0438  17.9845 </r>
       <r>  24.0399   0.0439  17.9891 </r>
       <r>  24.1452   0.0265  17.9919 </r>
       <r>  24.2506   0.0029  17.9922 </r>
       <r>  24.3559   0.0001  17.9922 </r>
       <r>  24.4613   0.0015  17.9924 </r>
       <r>  24.5666   0.0202  17.9945 </r>
       <r>  24.6720   0.0396  17.9987 </r>
       <r>  24.7773   0.0122  17.9999 </r>
       <r>  24.8826   0.0005  18.0000 </r>
       <r>  24.9880   0.0000  18.0000 </r>
       <r>  25.0933   0.0000  18.0000 </r>
       <r>  25.1987   0.0000  18.0000 </r>
       <r>  25.3040   0.0000  18.0000 </r>
       <r>  25.4093   0.0000  18.0000 </r>
       <r>  25.5147   0.0000  18.0000 </r>
       <r>  25.6200   0.0000  18.0000 </r>
       <r>  25.7254   0.0000  18.0000 </r>
       <r>  25.8307   0.0000  18.0000 </r>
       <r>  25.9360   0.0000  18.0000 </r>
       <r>  26.0414   0.0000  18.0000 </r>
      </set>
     </set>
    </array>
   </total>
   <partial>
    <array>
     <dimension dim="1">gridpoints</dimension>
     <dimension dim="2">spin</dimension>
     <dimension dim="3">ion</dimension>
     <field>energy</field>
     <field>  s</field>
     <field> py</field>
     <field> pz</field>
     <field> px</field>
     <field>dxy</field>
     <field>dyz</field>
     <field>dz2</field>
     <field>dxz</field>
     <field>dx2</field>
     <set>
      <set comment="ion 1">
       <set comment="spin 1">
        <r>  -5.5611   0.0000   0.0000   0.0000   0.0000   0.0000   0.0000   0.0000   0.0000   0.0000 </r>
        <r>  -5.4557   0.0000   0.0000   0.0000   0.0000   0.0000   0.0000   0.0000   0.0000   0.0000 </r>
        <r>  -5.3504   0.0000   0.0000   0.0000   0.0000   0.0000   0.0000   0.0000   0.0000   0.0000 </r>
        <r>  -5.2451   0.0000   0.0000   0.0000   0.0000   0.0000   0.0000   0.0000   0.0000   0.0000 </r>
        <r>  -5.1397   0.0000   0.0000   0.0000   0.0000   0.0000   0.0000   0.0000   0.0000   0.0000 </r>
        <r>  -5.0344   0.0000   0.0000   0.0000   0.0000   0.0000   0.0000   0.0000   0.0000   0.0000 </r>
        <r>  -4.9290   0.0000   0.0000   0.0000   0.0000   0.0000   0.0000   0.0000   0.0000   0.0000 </r>
        <r>  -4.8237   0.0000   0.0000   0.0000   0.0000   0.0000   0.0000   0.0000   0.0000   0.0000 </r>
        <r>  -4.7183   0.0000   0.0000   0.0000   0.0000   0.0000   0.0000   0.0000   0.0000   0.0000 </r>
        <r>  -4.6130   0.0000   0.0000   0.0000   0.0000   0.0000   0.0000   0.0000   0.0000   0.0000 </r>
        <r>  -4.5077   0.0000   0.0000   0.0000   0.0000   0.0000   0.0000   0.0000   0.0000   0.0000 </r>
        <r>  -4.4023   0.0000   0.0000   0.0000   0.0000   0.0000   0.0000   0.0000   0.0000   0.0000 </r>
        <r>  -4.2970   0.0003   0.0000   0.0000   0.0000   0.0000   0.0000   0.0000   0.0000   0.0000 </r>
        <r>  -4.1916   0.0070   0.0000   0.0000   0.0000   0.0000   0.0000   0.0000   0.0000   0.0000 </r>
        <r>  -4.0863   0.0229   0.0001   0.0001   0.0001   0.0000   0.0000   0.0000   0.0000   0.0000 </r>
        <r>  -3.9810   0.0121   0.0000   0.0000   0.0000   0.0000   0.0000   0.0000   0.0000   0.0000 </r>
        <r>  -3.8756   0.0132   0.0000   0.0000   0.0003   0.0000   0.0000   0.0000   0.0000   0.0000 </r>
        <r>  -3.7703   0.0606   0.0002   0.0002   0.0016   0.0001   0.0000   0.0000   0.0001   0.0001 </r>
        <r>  -3.6649   0.0468   0.0001   0.0001   0.0013   0.0001   0.0000   0.0000   0.0001   0.0001 </r>
        <r>  -3.5596   0.0161   0.0003   0.0003   0.0002   0.0000   0.0001   0.0000   0.0000   0.0000 </r>
        <r>  -3.4542   0.0571   0.0015   0.0015   0.0002   0.0001   0.0007   0.0000   0.0001   0.0001 </r>
        <r>  -3.3489   0.0481   0.0013   0.0013   0.0001   0.0001   0.0006   0.0000   0.0001   0.0000 </r>
        <r>  -3.2436   0.0206   0.0003   0.0009   0.0002   0.0001   0.0002   0.0002   0.0002   0.0000 </r>
        <r>  -3.1382   0.0725   0.0006   0.0044   0.0006   0.0004   0.0006   0.0010   0.0006   0.0000 </r>
        <r>  -3.0329   0.0623   0.0004   0.0041   0.0005   0.0003   0.0004   0.0010   0.0004   0.0000 </r>
        <r>  -2.9275   0.0425   0.0009   0.0007   0.0025   0.0013   0.0002   0.0004   0.0002   0.0002 </r>
        <r>  -2.8222   0.1206   0.0029   0.0003   0.0088   0.0046   0.0005   0.0007   0.0007   0.0009 </r>
        <r>  -2.7169   0.0791   0.0019   0.0004   0.0057   0.0033   0.0008   0.0004   0.0011   0.0005 </r>
        <r>  -2.6115   0.0599   0.0012   0.0011   0.0041   0.0033   0.0021   0.0001   0.0031   0.0004 </r>
        <r>  -2.5062   0.0362   0.0007   0.0008   0.0024   0.0020   0.0014   0.0001   0.0020   0.0002 </r>
        <r>  -2.4008   0.0258   0.0012   0.0021   0.0003   0.0005   0.0023   0.0009   0.0006   0.0001 </r>
        <r>  -2.2955   0.1164   0.0048   0.0111   0.0004   0.0030   0.0106   0.0060   0.0033   0.0005 </r>
        <r>  -2.1901   0.1337   0.0051   0.0124   0.0008   0.0067   0.0140   0.0069   0.0070   0.0004 </r>
        <r>  -2.0848   0.1050   0.0031   0.0120   0.0007   0.0064   0.0126   0.0080   0.0064   0.0001 </r>
        <r>  -1.9795   0.1415   0.0031   0.0184   0.0010   0.0093   0.0169   0.0129   0.0094   0.0000 </r>
        <r>  -1.8741   0.0965   0.0017   0.0100   0.0021   0.0211   0.0235   0.0065   0.0205   0.0002 </r>
        <r>  -1.7688   0.1388   0.0034   0.0029   0.0088   0.0755   0.0742   0.0022   0.0666   0.0016 </r>
        <r>  -1.6634   0.2038   0.0074   0.0021   0.0175   0.1062   0.0900   0.0081   0.0783   0.0037 </r>
        <r>  -1.5581   0.1943   0.0070   0.0082   0.0153   0.1007   0.0822   0.0663   0.0640   0.0035 </r>
        <r>  -1.4528   0.1754   0.0042   0.0147   0.0060   0.1172   0.1194   0.1690   0.0892   0.0023 </r>
        <r>  -1.3474   0.1745   0.0040   0.0224   0.0058   0.1083   0.0895   0.2914   0.0561   0.0089 </r>
        <r>  -1.2421   0.2440   0.0068   0.0324   0.0097   0.2972   0.1432   0.4383   0.0773   0.0128 </r>
        <r>  -1.1367   0.2199   0.0096   0.0245   0.0102   0.4712   0.1962   0.4252   0.0923   0.0088 </r>
        <r>  -1.0314   0.1774   0.0096   0.0275   0.0074   0.5737   0.1468   0.3770   0.0591   0.0052 </r>
        <r>  -0.9261   0.1635   0.0108   0.0280   0.0086   0.8239   0.1332   0.4756   0.0554   0.0098 </r>
        <r>  -0.8207   0.1310   0.0104   0.0176   0.0144   0.8080   0.1864   0.4275   0.0620   0.0431 </r>
        <r>  -0.7154   0.1103   0.0132   0.0080   0.0248   0.6010   0.1916   0.2320   0.0395   0.0824 </r>
        <r>  -0.6100   0.0833   0.0160   0.0069   0.0253   0.7033   0.2337   0.2742   0.0284   0.0917 </r>
        <r>  -0.5047   0.0514   0.0168   0.0073   0.0172   0.6169   0.2368   0.3703   0.0222   0.1206 </r>
        <r>  -0.3993   0.0358   0.0195   0.0108   0.0170   0.5086   0.1853   0.3198   0.0228   0.1127 </r>
        <r>  -0.2940   0.0273   0.0186   0.0124   0.0165   0.3787   0.2105   0.2753   0.0229   0.0845 </r>
        <r>  -0.1887   0.0138   0.0161   0.0143   0.0177   0.5116   0.2129   0.2375   0.0300   0.0711 </r>
        <r>  -0.0833   0.0204   0.0275   0.0258   0.0236   0.6628   0.3741   0.4028   0.0580   0.1540 </r>
        <r>   0.0220   0.0150   0.0321   0.0178   0.0194   0.2970   0.3911   0.6656   0.0935   0.1485 </r>
        <r>   0.1274   0.0189   0.0247   0.0177   0.0212   0.3900   0.4502   0.5511   0.1979   0.1359 </r>
        <r>   0.2327   0.0226   0.0151   0.0198   0.0222   0.4779   0.4465   0.3512   0.2218   0.1930 </r>
        <r>   0.3380   0.0250   0.0168   0.0125   0.0234   0.4071   0.3753   0.4915   0.1401   0.1838 </r>
        <r>   0.4434   0.0388   0.0190   0.0183   0.0266   0.4464   0.5295   0.6256   0.1639   0.2076 </r>
        <r>   0.5487   0.0582   0.0161   0.0444   0.0405   0.6218   0.7463   0.3583   0.2104   0.2622 </r>
        <r>   0.6541   0.0435   0.0154   0.0424   0.0348   0.6302   0.6092   0.3622   0.2435   0.3628 </r>
        <r>   0.7594   0.0331   0.0142   0.0257   0.0192   0.5868   0.4410   0.5825   0.3400   0.3490 </r>
        <r>   0.8648   0.0290   0.0145   0.0287   0.0160   0.5539   0.6177   0.5917   0.4576   0.3688 </r>
        <r>   0.9701   0.0500   0.0213   0.0635   0.0275   0.5630   0.7754   0.4000   0.6169   0.4355 </r>
        <r>   1.0754   0.0486   0.0210   0.0531   0.0276   0.3281   0.6305   0.2940   0.6596   0.3735 </r>
        <r>   1.1808   0.0472   0.0150   0.0433   0.0186   0.1828   0.4587   0.3409   0.3991   0.2966 </r>
        <r>   1.2861   0.0415   0.0139   0.0517   0.0154   0.1535   0.4613   0.2896   0.3528   0.3331 </r>
        <r>   1.3915   0.0218   0.0135   0.0400   0.0149   0.1308   0.4188   0.1931   0.4335   0.4518 </r>
        <r>   1.4968   0.0135   0.0126   0.0298   0.0144   0.1465   0.2524   0.2696   0.3483   0.5369 </r>
        <r>   1.6021   0.0109   0.0050   0.0157   0.0069   0.0693   0.1193   0.2847   0.2647   0.6053 </r>
        <r>   1.7075   0.0129   0.0037   0.0124   0.0080   0.0533   0.1427   0.2889   0.3494   0.8558 </r>
        <r>   1.8128   0.0285   0.0110   0.0362   0.0145   0.0900   0.3663   0.4264   0.4771   0.9800 </r>
[...]
       </set>
       <set comment="band 6">
        <r>  0.2407  0.0096  0.1646  0.0010  0.0000  0.2452  0.0902  0.0120  0.0030 </r>
       </set>
       <set comment="band 7">
        <r>  0.3178  0.0792  0.1371  0.0569  0.0290  0.0011  0.0001  0.0036  0.0312 </r>
       </set>
       <set comment="band 8">
        <r>  0.0540  0.0009  0.0633  0.3482  0.0913  0.0071  0.0385  0.0319  0.0040 </r>
       </set>
       <set comment="band 9">
        <r>  0.0043  0.2090  0.0560  0.0448  0.0091  0.0305  0.1976  0.0013  0.0298 </r>
       </set>
      </set>
      <set comment="kpoint 46">
       <set comment="band 1">
        <r>  0.0059  0.0281  0.0004  0.0003  0.0348  0.0002  0.6509  0.0001  0.0903 </r>
       </set>
       <set comment="band 2">
        <r>  0.0029  0.0033  0.0003  0.0403  0.7579  0.0071  0.0209  0.0033  0.0112 </r>
       </set>
       <set comment="band 3">
        <r>  0.0063  0.0002  0.0581  0.0005  0.0094  0.7651  0.0015  0.0050  0.0069 </r>
       </set>
       <set comment="band 4">
        <r>  0.0243  0.0012  0.0020  0.0007  0.0020  0.0094  0.1107  0.0028  0.7697 </r>
       </set>
       <set comment="band 5">
        <r>  0.0003  0.0000  0.0005  0.0006  0.0049  0.0108  0.0002  0.9606  0.0014 </r>
       </set>
       <set comment="band 6">
        <r>  0.5222  0.0000  0.0775  0.0075  0.0130  0.0705  0.0359  0.0047  0.0245 </r>
       </set>
       <set comment="band 7">
        <r>  0.0868  0.0276  0.2843  0.0718  0.0386  0.1074  0.0064  0.0009  0.0281 </r>
       </set>
       <set comment="band 8">
        <r>  0.0699  0.0110  0.0638  0.3251  0.1127  0.0198  0.0412  0.0073  0.0027 </r>
       </set>
       <set comment="band 9">
        <r>  0.0003  0.2347  0.0146  0.0460  0.0153  0.0073  0.2142  0.0001  0.0713 </r>
       </set>
      </set>
      <set comment="kpoint 47">
       <set comment="band 1">
        <r>  0.0132  0.0253  0.0021  0.0051  0.0002  0.0957  0.3970  0.0032  0.2729 </r>
       </set>
       <set comment="band 2">
        <r>  0.0110  0.0042  0.0314  0.0041  0.1102  0.5525  0.0902  0.0269  0.0147 </r>
       </set>
       <set comment="band 3">
        <r>  0.0367  0.0029  0.0076  0.0442  0.5785  0.1347  0.0071  0.0000  0.0272 </r>
       </set>
       <set comment="band 4">
        <r>  0.0050  0.0016  0.0006  0.0119  0.0341  0.0003  0.3142  0.0292  0.5284 </r>
       </set>
       <set comment="band 5">
        <r>  0.0013  0.0000  0.0034  0.0000  0.0164  0.0412  0.0088  0.8843  0.0139 </r>
       </set>
       <set comment="band 6">
        <r>  0.3440  0.0144  0.0006  0.1227  0.2034  0.0006  0.0200  0.0074  0.0469 </r>
       </set>
       <set comment="band 7">
        <r>  0.2014  0.0680  0.1263  0.1087  0.0075  0.0672  0.0727  0.0109  0.0003 </r>
       </set>
       <set comment="band 8">
        <r>  0.0918  0.0121  0.3052  0.0785  0.0083  0.0990  0.0199  0.0309  0.0113 </r>
       </set>
       <set comment="band 9">
        <r>  0.0115  0.1674  0.0072  0.1176  0.0423  0.0031  0.1379  0.0000  0.1067 </r>
       </set>
      </set>
      <set comment="kpoint 48">
       <set comment="band 1">
        <r>  0.0395  0.0003  0.0008  0.0003  0.2710  0.0004  0.5034  0.0004  0.0000 </r>
       </set>
       <set comment="band 2">
        <r>  0.0029  0.0145  0.0001  0.0145  0.5576  0.0004  0.2399  0.0004  0.0000 </r>
       </set>
       <set comment="band 3">
        <r>  0.0060  0.0000  0.0810  0.0000  0.0029  0.3888  0.0022  0.3888  0.0000 </r>
       </set>
       <set comment="band 4">
        <r>  0.0000  0.0031  0.0000  0.0031  0.0000  0.0323  0.0000  0.0323  0.8820 </r>
       </set>
       <set comment="band 5">
        <r>  0.0000  0.0000  0.0000  0.0000  0.0000  0.4550  0.0000  0.4550  0.0668 </r>
       </set>
       <set comment="band 6">
        <r>  0.1367  0.0004  0.3162  0.0004  0.0008  0.1002  0.0393  0.1002  0.0000 </r>
       </set>
       <set comment="band 7">
        <r>  0.4741  0.0325  0.0945  0.0325  0.0319  0.0051  0.0312  0.0051  0.0000 </r>
       </set>
       <set comment="band 8">
        <r>  0.0355  0.1580  0.0223  0.1580  0.0454  0.0058  0.2063  0.0058  0.0000 </r>
       </set>
       <set comment="band 9">
        <r>  0.0000  0.2408  0.0000  0.2408  0.0000  0.0014  0.0000  0.0014  0.0522 </r>
       </set>
      </set>
      <set comment="kpoint 49">
       <set comment="band 1">
        <r>  0.0285  0.0136  0.0008  0.0009  0.1129  0.0002  0.6383  0.0002  0.0123 </r>
       </set>
       <set comment="band 2">
        <r>  0.0005  0.0058  0.0000  0.0222  0.7124  0.0002  0.0979  0.0011  0.0032 </r>
       </set>
       <set comment="band 3">
        <r>  0.0077  0.0001  0.0705  0.0000  0.0010  0.7475  0.0005  0.0140  0.0224 </r>
       </set>
       <set comment="band 4">
        <r>  0.0082  0.0046  0.0035  0.0004  0.0001  0.0169  0.0187  0.0073  0.8799 </r>
       </set>
       <set comment="band 5">
        <r>  0.0002  0.0000  0.0004  0.0006  0.0020  0.0255  0.0000  0.9464  0.0043 </r>
       </set>
       <set comment="band 6">
        <r>  0.2089  0.0009  0.2727  0.0000  0.0007  0.1673  0.0463  0.0099  0.0011 </r>
       </set>
       <set comment="band 7">
        <r>  0.4385  0.0180  0.1467  0.0162  0.0127  0.0294  0.0283  0.0006  0.0214 </r>
       </set>
       <set comment="band 8">
        <r>  0.0168  0.0602  0.0134  0.3289  0.0932  0.0043  0.0979  0.0047  0.0017 </r>
       </set>
       <set comment="band 9">
        <r>  0.0017  0.2364  0.0036  0.1181  0.0236  0.0035  0.1397  0.0006  0.0509 </r>
       </set>
      </set>
      <set comment="kpoint 50">
       <set comment="band 1">
        <r>  0.0551  0.0001  0.0074  0.0001  0.3221  0.0057  0.4161  0.0057  0.0000 </r>
       </set>
       <set comment="band 2">
        <r>  0.0065  0.0147  0.0013  0.0147  0.4897  0.0031  0.2955  0.0031  0.0000 </r>
       </set>
       <set comment="band 3">
        <r>  0.0458  0.0001  0.0763  0.0001  0.0272  0.3357  0.0273  0.3357  0.0000 </r>
       </set>
       <set comment="band 4">
        <r>  0.0000  0.0035  0.0000  0.0035  0.0000  0.1419  0.0000  0.1419  0.6532 </r>
       </set>
       <set comment="band 5">
        <r>  0.0000  0.0000  0.0000  0.0000  0.0000  0.3405  0.0000  0.3405  0.2983 </r>
       </set>
       <set comment="band 6">
        <r>  0.1970  0.0066  0.1823  0.0066  0.0001  0.1355  0.0988  0.1355  0.0000 </r>
       </set>
       <set comment="band 7">
        <r>  0.3110  0.0865  0.1059  0.0865  0.0507  0.0018  0.0004  0.0018  0.0000 </r>
       </set>
       <set comment="band 8">
        <r>  0.0761  0.0900  0.1330  0.0900  0.0236  0.0218  0.1992  0.0218  0.0000 </r>
       </set>
       <set comment="band 9">
        <r>  0.0000  0.2383  0.0000  0.2383  0.0000  0.0116  0.0000  0.0116  0.0442 </r>
       </set>
      </set>
      <set comment="kpoint 51">
       <set comment="band 1">
        <r>  0.3407  0.0112  0.0112  0.0112  0.1039  0.1039  0.0000  0.1039  0.0000 </r>
       </set>
       <set comment="band 2">
        <r>  0.0000  0.0001  0.0001  0.0004  0.0826  0.3335  0.1037  0.0841  0.3148 </r>
       </set>
       <set comment="band 3">
        <r>  0.0000  0.0003  0.0003  0.0000  0.2509  0.0000  0.3148  0.2494  0.1037 </r>
       </set>
       <set comment="band 4">
        <r>  0.1112  0.0418  0.0418  0.0418  0.1713  0.1713  0.0000  0.1713  0.0000 </r>
       </set>
       <set comment="band 5">
        <r>  0.0000  0.0008  0.0008  0.0000  0.2189  0.0000  0.3907  0.2175  0.1286 </r>
       </set>
       <set comment="band 6">
        <r>  0.0000  0.0003  0.0003  0.0011  0.0721  0.2910  0.1286  0.0734  0.3907 </r>
       </set>
       <set comment="band 7">
        <r>  0.1899  0.0888  0.0888  0.0888  0.0659  0.0659  0.0000  0.0659  0.0000 </r>
       </set>
       <set comment="band 8">
        <r>  0.0004  0.0058  0.0058  0.0058  0.0151  0.0151  0.0000  0.0151  0.0000 </r>
       </set>
       <set comment="band 9">
        <r>  0.0000  0.0714  0.0927  0.3165  0.0226  0.0773  0.0004  0.0174  0.0009 </r>
       </set>
      </set>
      <set comment="kpoint 52">
       <set comment="band 1">
        <r>  0.2418  0.0171  0.0171  0.0004  0.1299  0.1973  0.0004  0.1299  0.0011 </r>
       </set>
       <set comment="band 2">
        <r>  0.0041  0.0000  0.0000  0.0066  0.1197  0.2807  0.0926  0.1197  0.2779 </r>
       </set>
       <set comment="band 3">
        <r>  0.0000  0.0004  0.0004  0.0000  0.1774  0.0000  0.4226  0.1774  0.1409 </r>
       </set>
       <set comment="band 4">
        <r>  0.0722  0.0402  0.0402  0.0341  0.1615  0.0007  0.0648  0.1615  0.1944 </r>
       </set>
       <set comment="band 5">
        <r>  0.0000  0.0008  0.0008  0.0000  0.2943  0.0000  0.2710  0.2943  0.0903 </r>
       </set>
       <set comment="band 6">
        <r>  0.0920  0.0253  0.0253  0.0069  0.0007  0.4481  0.0743  0.0007  0.2228 </r>
       </set>
       <set comment="band 7">
        <r>  0.2259  0.0792  0.0792  0.0980  0.0669  0.0446  0.0041  0.0669  0.0123 </r>
       </set>
       <set comment="band 8">
        <r>  0.0258  0.0324  0.0324  0.2414  0.0754  0.0106  0.0091  0.0754  0.0272 </r>
       </set>
       <set comment="band 9">
        <r>  0.0152  0.0555  0.0555  0.0444  0.0005  0.0013  0.0035  0.0005  0.0106 </r>
       </set>
      </set>
      <set comment="kpoint 53">
       <set comment="band 1">
        <r>  0.1184  0.0137  0.0137  0.0038  0.0414  0.5283  0.0115  0.0414  0.0346 </r>
       </set>
       <set comment="band 2">
        <r>  0.0050  0.0105  0.0105  0.0179  0.1706  0.0266  0.1085  0.1706  0.3256 </r>
       </set>
       <set comment="band 3">
        <r>  0.0225  0.0284  0.0284  0.0313  0.1870  0.0518  0.0675  0.1870  0.2024 </r>
       </set>
       <set comment="band 4">
        <r>  0.0000  0.0028  0.0028  0.0000  0.0424  0.0000  0.6249  0.0424  0.2083 </r>
       </set>
       <set comment="band 5">
        <r>  0.0000  0.0002  0.0002  0.0000  0.4341  0.0000  0.0640  0.4341  0.0213 </r>
       </set>
       <set comment="band 6">
        <r>  0.2594  0.0456  0.0456  0.0024  0.0004  0.3454  0.0283  0.0004  0.0848 </r>
       </set>
       <set comment="band 7">
        <r>  0.2167  0.0793  0.0793  0.1098  0.0489  0.0044  0.0218  0.0489  0.0655 </r>
       </set>
       <set comment="band 8">
        <r>  0.0635  0.0362  0.0362  0.2979  0.0894  0.0005  0.0116  0.0894  0.0349 </r>
       </set>
       <set comment="band 9">
        <r>  0.0206  0.0607  0.0351  0.0014  0.0000  0.0877  0.0211  0.0000  0.0659 </r>
       </set>
      </set>
      <set comment="kpoint 54">
       <set comment="band 1">
        <r>  0.0450  0.0009  0.0009  0.0012  0.0042  0.4986  0.0711  0.0042  0.2134 </r>
       </set>
       <set comment="band 2">
        <r>  0.0029  0.0333  0.0333  0.0004  0.0095  0.2324  0.1213  0.0095  0.3638 </r>
       </set>
       <set comment="band 3">
        <r>  0.0024  0.0011  0.0011  0.0721  0.3719  0.0314  0.0002  0.3719  0.0007 </r>
       </set>
       <set comment="band 4">
        <r>  0.0000  0.0039  0.0039  0.0000  0.0326  0.0000  0.6452  0.0326  0.2151 </r>
       </set>
       <set comment="band 5">
        <r>  0.0000  0.0001  0.0001  0.0000  0.4499  0.0000  0.0499  0.4499  0.0166 </r>
       </set>
       <set comment="band 6">
        <r>  0.4602  0.0496  0.0496  0.0002  0.0049  0.1572  0.0010  0.0049  0.0031 </r>
       </set>
       <set comment="band 7">
        <r>  0.0521  0.0416  0.0416  0.2799  0.0925  0.0070  0.0188  0.0925  0.0565 </r>
       </set>
       <set comment="band 8">
        <r>  0.1313  0.0807  0.0807  0.1413  0.0330  0.0089  0.0422  0.0330  0.1267 </r>
       </set>
       <set comment="band 9">
        <r>  0.0000  0.2353  0.2353  0.0000  0.0006  0.0000  0.0846  0.0006  0.0282 </r>
       </set>
      </set>
      <set comment="kpoint 55">
       <set comment="band 1">
        <r>  0.1859  0.0000  0.0201  0.0000  0.2465  0.1500  0.0155  0.1500  0.0000 </r>
       </set>
       <set comment="band 2">
        <r>  0.0004  0.0027  0.0001  0.0027  0.0889  0.0934  0.6110  0.0934  0.0000 </r>
       </set>
       <set comment="band 3">
        <r>  0.0000  0.0017  0.0000  0.0017  0.0000  0.2056  0.0000  0.2056  0.5043 </r>
       </set>
       <set comment="band 4">
        <r>  0.0540  0.0321  0.0368  0.0321  0.4970  0.0199  0.1088  0.0199  0.0000 </r>
       </set>
       <set comment="band 5">
        <r>  0.0000  0.0002  0.0000  0.0002  0.0000  0.2691  0.0000  0.2691  0.4375 </r>
       </set>
       <set comment="band 6">
        <r>  0.1201  0.0324  0.0742  0.0324  0.0206  0.1739  0.1759  0.1739  0.0000 </r>
       </set>
       <set comment="band 7">
        <r>  0.2750  0.0825  0.0547  0.0825  0.0945  0.0548  0.0066  0.0548  0.0000 </r>
       </set>
       <set comment="band 8">
        <r>  0.0079  0.0012  0.0974  0.0012  0.0112  0.0046  0.1022  0.0046  0.0000 </r>
       </set>
       <set comment="band 9">
        <r>  0.0000  0.2345  0.0000  0.2344  0.0000  0.0283  0.0000  0.0283  0.0352 </r>
       </set>
      </set>
      <set comment="kpoint 56">
       <set comment="band 1">
        <r>  0.1099  0.0014  0.0202  0.0102  0.3198  0.2210  0.0247  0.0926  0.0017 </r>
       </set>
       <set comment="band 2">
        <r>  0.0004  0.0138  0.0000  0.0005  0.0315  0.1534  0.5219  0.0026  0.1365 </r>
       </set>
       <set comment="band 3">
        <r>  0.0198  0.0208  0.0274  0.0315  0.3493  0.2315  0.1282  0.0165  0.0036 </r>
       </set>
       <set comment="band 4">
        <r>  0.0016  0.0029  0.0135  0.0004  0.0601  0.0003  0.0807  0.2371  0.5180 </r>
       </set>
       <set comment="band 5">
        <r>  0.0009  0.0003  0.0018  0.0014  0.0680  0.0858  0.0452  0.5342  0.2280 </r>
       </set>
       <set comment="band 6">
        <r>  0.2199  0.0372  0.0990  0.0209  0.0003  0.2569  0.0880  0.0306  0.0219 </r>
       </set>
       <set comment="band 7">
        <r>  0.2616  0.0667  0.0505  0.1150  0.1065  0.0086  0.0170  0.0462  0.0265 </r>
       </set>
       <set comment="band 8">
        <r>  0.0734  0.0304  0.0881  0.2807  0.0639  0.0012  0.0000  0.0467  0.0497 </r>
       </set>
       <set comment="band 9">
        <r>  0.0161  0.0922  0.1637  0.0033  0.0044  0.0457  0.1720  0.0011  0.0093 </r>
       </set>
      </set>
      <set comment="kpoint 57">
       <set comment="band 1">
        <r>  0.0221  0.0080  0.0044  0.0011  0.0034  0.3289  0.2271  0.0022  0.2391 </r>
       </set>
       <set comment="band 2">
        <r>  0.0141  0.0255  0.0337  0.0019  0.0443  0.3728  0.2286  0.0086  0.0853 </r>
       </set>
       <set comment="band 3">
        <r>  0.0011  0.0020  0.0036  0.0569  0.6771  0.0561  0.0011  0.0493  0.0054 </r>
       </set>
       <set comment="band 4">
        <r>  0.0104  0.0006  0.0053  0.0013  0.0004  0.0101  0.3676  0.0249  0.5058 </r>
       </set>
       <set comment="band 5">
        <r>  0.0014  0.0000  0.0001  0.0023  0.0923  0.0061  0.0082  0.8487  0.0109 </r>
       </set>
       <set comment="band 6">
        <r>  0.4762  0.0185  0.0739  0.0003  0.0061  0.1341  0.0245  0.0078  0.0037 </r>
       </set>
       <set comment="band 7">
        <r>  0.0473  0.0466  0.0687  0.2601  0.1227  0.0165  0.0292  0.0285  0.0469 </r>
       </set>
       <set comment="band 8">
        <r>  0.1293  0.0471  0.1191  0.1697  0.0530  0.0191  0.0186  0.0211  0.0950 </r>
       </set>
       <set comment="band 9">
        <r>  0.0124  0.1602  0.1787  0.0010  0.0014  0.0454  0.1762  0.0004  0.0130 </r>
       </set>
      </set>
      <set comment="kpoint 58">
       <set comment="band 1">
        <r>  0.0717  0.0018  0.0095  0.0018  0.4967  0.0461  0.1508  0.0461  0.0000 </r>
       </set>
       <set comment="band 2">
        <r>  0.0018  0.0229  0.0011  0.0229  0.0584  0.0548  0.6078  0.0548  0.0000 </r>
       </set>
       <set comment="band 3">
        <r>  0.0164  0.0087  0.0577  0.0087  0.2304  0.2559  0.0108  0.2559  0.0000 </r>
       </set>
       <set comment="band 4">
        <r>  0.0000  0.0033  0.0000  0.0033  0.0000  0.1268  0.0000  0.1268  0.6676 </r>
       </set>
       <set comment="band 5">
        <r>  0.0000  0.0001  0.0000  0.0001  0.0000  0.3543  0.0000  0.3543  0.2641 </r>
       </set>
       <set comment="band 6">
        <r>  0.2930  0.0143  0.1282  0.0143  0.0039  0.1206  0.0779  0.1206  0.0000 </r>
       </set>
       <set comment="band 7">
        <r>  0.2171  0.0982  0.0676  0.0982  0.1431  0.0007  0.0398  0.0007  0.0000 </r>
       </set>
       <set comment="band 8">
        <r>  0.0897  0.0549  0.2213  0.0549  0.0058  0.0380  0.1421  0.0380  0.0000 </r>
       </set>
       <set comment="band 9">
        <r>  0.0000  0.2352  0.0000  0.2352  0.0000  0.0053  0.0000  0.0053  0.0940 </r>
       </set>
      </set>
      <set comment="kpoint 59">
       <set comment="band 1">
        <r>  0.1897  0.0010  0.0010  0.0010  0.1940  0.1940  0.0000  0.1940  0.0000 </r>
       </set>
       <set comment="band 2">
        <r>  0.0000  0.0000  0.0000  0.0000  0.0639  0.2563  0.1317  0.0643  0.3970 </r>
       </set>
       <set comment="band 3">
        <r>  0.0000  0.0000  0.0000  0.0000  0.1925  0.0000  0.3970  0.1920  0.1317 </r>
       </set>
       <set comment="band 4">
        <r>  0.0000  0.0002  0.0002  0.0000  0.2853  0.0000  0.3059  0.2822  0.0997 </r>
       </set>
       <set comment="band 5">
        <r>  0.0000  0.0001  0.0001  0.0003  0.0930  0.3783  0.0997  0.0961  0.3059 </r>
       </set>
       <set comment="band 6">
        <r>  0.0986  0.1159  0.1159  0.1159  0.0401  0.0401  0.0000  0.0401  0.0000 </r>
       </set>
       <set comment="band 7">
        <r>  0.3638  0.0403  0.0403  0.0403  0.0984  0.0984  0.0000  0.0984  0.0000 </r>
       </set>
       <set comment="band 8">
        <r>  0.0000  0.0066  0.0066  0.0066  0.0015  0.0015  0.0000  0.0015  0.0000 </r>
       </set>
       <set comment="band 9">
        <r>  0.0000  0.0561  0.1079  0.3195  0.0032  0.0094  0.0000  0.0016  0.0001 </r>
       </set>
      </set>
      <set comment="kpoint 60">
       <set comment="band 1">
        <r>  0.1516  0.0031  0.0031  0.0065  0.1822  0.2588  0.0004  0.1822  0.0011 </r>
       </set>
       <set comment="band 2">
        <r>  0.0001  0.0022  0.0022  0.0007  0.0688  0.1780  0.1428  0.0688  0.4284 </r>
       </set>
       <set comment="band 3">
        <r>  0.0000  0.0010  0.0010  0.0000  0.1698  0.0000  0.4305  0.1698  0.1435 </r>
       </set>
       <set comment="band 4">
        <r>  0.0011  0.0367  0.0367  0.0368  0.1078  0.2806  0.0555  0.1078  0.1665 </r>
       </set>
       <set comment="band 5">
        <r>  0.0000  0.0002  0.0002  0.0000  0.3078  0.0000  0.2669  0.3078  0.0890 </r>
       </set>
       <set comment="band 6">
        <r>  0.0501  0.1083  0.1083  0.0975  0.0019  0.1697  0.0308  0.0019  0.0925 </r>
       </set>
       <set comment="band 7">
        <r>  0.4359  0.0089  0.0089  0.0354  0.1233  0.0737  0.0026  0.1233  0.0078 </r>
       </set>
       <set comment="band 8">
        <r>  0.0244  0.0245  0.0245  0.2161  0.0345  0.0018  0.0191  0.0345  0.0573 </r>
       </set>
       <set comment="band 9">
        <r>  0.0219  0.0568  0.0569  0.0780  0.0033  0.0350  0.0007  0.0033  0.0020 </r>
       </set>
      </set>
     </set>
    </set>
   </array>
  </projected>
 </calculation>
 <structure name="finalpos"">
  <crystal>
   <varray name="basis"">
    <v>       0.00000000      2.08050670      2.08050670</v>
    <v>       2.08050670      0.00000000      2.08050670</v>
    <v>       2.08050670      2.08050670      0.00000000</v>
   </varray>
   <i name="volume""     18.01098024</i>
   <varray name="rec_basis"">
    <v>      -0.24032607      0.24032607      0.24032607</v>
    <v>       0.24032607     -0.24032607      0.24032607</v>
    <v>       0.24032607      0.24032607     -0.24032607</v>
   </varray>
  </crystal>
  <varray name="positions"">
   <v>       0.00000000      0.00000000      0.00000000</v>
  </varray>
 </structure>
</modeling>
