----- GAMESS execution script 'rungms' -----
This job is running on host dftfe.crc.nd.edu
under operating system Linux at Thu Feb 26 00:17:05 EST 2015
Available scratch disk space (Kbyte units) at beginning of the job is
Filesystem     1K-blocks     Used Available Use% Mounted on
/dev/sda2      147771864 22813680 117451752  17% /
GAMESS temporary binary files will be written to /tmp
GAMESS supplementary output files will be written to /tmp
Copying input file gamess.inp to your run's scratch directory...

 Distributed Data Interface kickoff program.
 Initiating 1 compute processes on 1 nodes to run the following command:
 /opt/crc/gamess/2012R1/gamess/gamess.00.x gamess 

          ******************************************************
          *         GAMESS VERSION =  1 MAY 2012 (R1)          *
          *             FROM IOWA STATE UNIVERSITY             *
          * M.W.SCHMIDT, K.K.BALDRIDGE, J.A.BOATZ, S.T.ELBERT, *
          *   M.S.GORDON, J.H.JENSEN, S.KOSEKI, N.MATSUNAGA,   *
          *          K.A.NGUYEN, S.J.SU, T.L.WINDUS,           *
          *       TOGETHER WITH M.DUPUIS, J.A.MONTGOMERY       *
          *         J.COMPUT.CHEM.  14, 1347-1363(1993)        *
          **************** 64 BIT LINUX VERSION ****************

  SINCE 1993, STUDENTS AND POSTDOCS WORKING AT IOWA STATE UNIVERSITY
  AND ALSO IN THEIR VARIOUS JOBS AFTER LEAVING ISU HAVE MADE IMPORTANT
  CONTRIBUTIONS TO THE CODE:
     IVANA ADAMOVIC, CHRISTINE AIKENS, YURI ALEXEEV, POOJA ARORA,
     ANDREY ASADCHEV, ROB BELL, PRADIPTA BANDYOPADHYAY, JONATHAN BENTZ,
     BRETT BODE, GALINA CHABAN, WEI CHEN, CHEOL HO CHOI, PAUL DAY,
     ALBERT DEFUSCO, TIM DUDLEY, DMITRI FEDOROV, GRAHAM FLETCHER,
     MARK FREITAG, KURT GLAESEMANN, DAN KEMP, GRANT MERRILL,
     NORIYUKI MINEZAWA, JONATHAN MULLIN, TAKESHI NAGATA,
     SEAN NEDD, HEATHER NETZLOFF, BOSILJKA NJEGIC, RYAN OLSON, MIKE PAK,
     JIM SHOEMAKER, LYUDMILA SLIPCHENKO, SAROM SOK, JIE SONG,
     TETSUYA TAKETSUGU, SIMON WEBB, SOOHAENG YOO, FEDERICO ZAHARIEV

  ADDITIONAL CODE HAS BEEN PROVIDED BY COLLABORATORS IN OTHER GROUPS:
     IOWA STATE UNIVERSITY:
          JOE IVANIC, LAIMUTIS BYTAUTAS, KLAUS RUEDENBERG
     UNIVERSITY OF TOKYO: KIMIHIKO HIRAO, TAKAHITO NAKAJIMA,
          TAKAO TSUNEDA, MUNEAKI KAMIYA, SUSUMU YANAGISAWA,
          KIYOSHI YAGI, MAHITO CHIBA, SEIKEN TOKURA, NAOAKI KAWAKAMI
     UNIVERSITY OF AARHUS: FRANK JENSEN
     UNIVERSITY OF IOWA: VISVALDAS KAIRYS, HUI LI
     NATIONAL INST. OF STANDARDS AND TECHNOLOGY: WALT STEVENS, DAVID GARMER
     UNIVERSITY OF PISA: BENEDETTA MENNUCCI, JACOPO TOMASI
     UNIVERSITY OF MEMPHIS: HENRY KURTZ, PRAKASHAN KORAMBATH
     UNIVERSITY OF ALBERTA: TOBY ZENG, MARIUSZ KLOBUKOWSKI
     UNIVERSITY OF NEW ENGLAND: MARK SPACKMAN
     MIE UNIVERSITY: HIROAKI UMEDA
     MICHIGAN STATE UNIVERSITY:
          KAROL KOWALSKI, MARTA WLOCH, JEFFREY GOUR, JESSE LUTZ, PIOTR PIECUCH
     UNIVERSITY OF SILESIA: MONIKA MUSIAL, STANISLAW KUCHARSKI
     FACULTES UNIVERSITAIRES NOTRE-DAME DE LA PAIX:
          OLIVIER QUINET, BENOIT CHAMPAGNE
     UNIVERSITY OF CALIFORNIA - SANTA BARBARA: BERNARD KIRTMAN
     INSTITUTE FOR MOLECULAR SCIENCE:
          KAZUYA ISHIMURA, MICHIO KATOUDA, AND SHIGERU NAGASE
     UNIVERSITY OF NOTRE DAME: DAN CHIPMAN
     KYUSHU UNIVERSITY:
          HARUYUKI NAKANO,
          FENG LONG GU, JACEK KORCHOWIEC, MARCIN MAKOWSKI, AND YURIKO AOKI,
          HIROTOSHI MORI AND EISAKU MIYOSHI
     PENNSYLVANIA STATE UNIVERSITY:
          TZVETELIN IORDANOV, CHET SWALINA, JONATHAN SKONE,
          SHARON HAMMES-SCHIFFER
     WASEDA UNIVERSITY:
          MASATO KOBAYASHI, TOMOKO AKAMA, TSUGUKI TOUMA,
          TAKESHI YOSHIKAWA, YASUHIRO IKABATA, HIROMI NAKAI
     UNIVERSITY OF NEBRASKA:
          PEIFENG SU, DEJUN SI, NANDUN THELLAMUREGE, YALI WANG, HUI LI
     UNIVERSITY OF ZURICH:
          ROBERTO PEVERATI, KIM BALDRIDGE
     N. COPERNICUS UNIVERSITY AND JACKSON STATE UNIVERSITY:
          MARIA BARYSZ

 EXECUTION OF GAMESS BEGUN Thu Feb 26 00:17:05 2015

            ECHO OF THE FIRST FEW INPUT CARDS -
 INPUT CARD> $BASIS GBASIS=PC1 $END                                                         
 INPUT CARD> $CONTRL COORD=ZMT ISPHER=1 RUNTYP=ENERGY DFTTYP=PBE $END                       
 INPUT CARD>                                                                                
 INPUT CARD> $DATA                                                                          
 INPUT CARD>Title                                                                           
 INPUT CARD>Cnv 2                                                                           
 INPUT CARD>                                                                                
 INPUT CARD>S                                                                               
 INPUT CARD>O 1 1.50                                                                        
 INPUT CARD>O 1 1.50 2 140.0                                                                
 INPUT CARD> $END                                                                           
    1000000 WORDS OF MEMORY AVAILABLE

     BASIS OPTIONS
     -------------
     GBASIS=PC1          IGAUSS=       0      POLAR=NONE    
     NDFUNC=       0     NFFUNC=       0     DIFFSP=       F
     NPFUNC=       0      DIFFS=       F     BASNAM=        


     RUN TITLE
     ---------
 Title                                                                           

 THE POINT GROUP OF THE MOLECULE IS CNV     
 THE ORDER OF THE PRINCIPAL AXIS IS     2

 YOUR FULLY SUBSTITUTED Z-MATRIX IS
 S   
 O      1   1.5000000
 O      1   1.5000000  2  140.0000

 THE MOMENTS OF INERTIA ARE (AMU-ANGSTROM**2)
 IXX=     4.209   IYY=    63.557   IZZ=    67.766

 ATOM      ATOMIC                      COORDINATES (BOHR)
           CHARGE         X                   Y                   Z
 S          16.0     0.0000000000        0.0000000000       -0.4848777855
 O           8.0    -2.6636423490        0.0000000000        0.4846087443
 O           8.0     2.6636423490        0.0000000000        0.4846087443

          INTERNUCLEAR DISTANCES (ANGS.)
          ------------------------------

                1 S          2 O          3 O     

   1 S       0.0000000    1.5000000 *  1.5000000 *
   2 O       1.5000000 *  0.0000000    2.8190779 *
   3 O       1.5000000 *  2.8190779 *  0.0000000  

  * ... LESS THAN  3.000


     ATOMIC BASIS SET
     ----------------
 THE CONTRACTED PRIMITIVE FUNCTIONS HAVE BEEN UNNORMALIZED
 THE CONTRACTED BASIS FUNCTIONS ARE NOW NORMALIZED TO UNITY

  SHELL TYPE  PRIMITIVE        EXPONENT          CONTRACTION COEFFICIENT(S)

 S         

      1   S       1         55510.0000000    0.000587229760
      1   S       2          8326.7000000    0.004532413947
      1   S       3          1895.6000000    0.023265261648
      1   S       4           536.7700000    0.089696133027
      1   S       5           174.6700000    0.254098332277
      1   S       6            62.5780000    0.438665087637
      1   S       7            23.5730000    0.314547135094
      1   S       8             5.8908000    0.032727897102

      2   S       9          8326.7000000   -0.000019755715
      2   S      10          1895.6000000   -0.000043822381
      2   S      11           536.7700000   -0.001730264906
      2   S      12           174.6700000   -0.009381263460
      2   S      13            62.5780000   -0.064050766303
      2   S      14            23.5730000   -0.082478179196
      2   S      15             5.8908000    0.478342956889
      2   S      16             2.1852000    0.626896670208

      3   S      17          1895.6000000    0.000016227260
      3   S      18           536.7700000    0.000191135619
      3   S      19           174.6700000    0.001952069674
      3   S      20            62.5780000    0.010578701087
      3   S      21            23.5730000    0.022164934551
      3   S      22             5.8908000   -0.184968323118
      3   S      23             2.1852000   -0.480920750976
      3   S      24             0.4528200    1.243822243872

      4   S      25             0.1620200    1.000000000000

      5   P      26           395.4500000    0.004642761329
      5   P      27            92.8340000    0.036023396489
      5   P      28            29.2660000    0.149058869978
      5   P      29            10.5950000    0.360033266263
      5   P      30             4.0272000    0.455756476221
      5   P      31             1.5484000    0.206167664178

      6   P      32            92.8340000    0.000169901442
      6   P      33            29.2660000   -0.002541839934
      6   P      34            10.5950000   -0.007867614595
      6   P      35             4.0272000   -0.037231009184
      6   P      36             1.5484000    0.161417246830
      6   P      37             0.4613400    0.902230419976

      7   P      38             0.1313100    1.000000000000

      8   D      39             0.5500000    1.000000000000

 O         

     15   S      40          2306.7000000    0.005424388755
     15   S      41           347.1500000    0.040474749465
     15   S      42            78.8900000    0.180219634554
     15   S      43            21.8760000    0.462370311787
     15   S      44             6.6646000    0.454888396263

     16   S      45           347.1500000   -0.000655003786
     16   S      46            78.8900000   -0.005362052952
     16   S      47            21.8760000   -0.074902158894
     16   S      48             6.6646000   -0.181442579655
     16   S      49             1.0669000    1.102006874042

     17   S      50             0.3070000    1.000000000000

     18   P      51            17.0220000    0.068979967443
     18   P      52             3.6838000    0.351985516325
     18   P      53             0.9923400    0.724036547822

     19   P      54             0.2448700    1.000000000000

     20   D      55             1.0000000    1.000000000000

 TOTAL NUMBER OF BASIS SET SHELLS             =   20
 NUMBER OF CARTESIAN GAUSSIAN BASIS FUNCTIONS =   49
 NOTE: THIS RUN WILL RESTRICT THE MO VARIATION SPACE TO SPHERICAL HARMONICS.
 THE NUMBER OF ORBITALS KEPT IN THE VARIATIONAL SPACE WILL BE PRINTED LATER.
 NUMBER OF ELECTRONS                          =   32
 CHARGE OF MOLECULE                           =    0
 SPIN MULTIPLICITY                            =    1
 NUMBER OF OCCUPIED ORBITALS (ALPHA)          =   16
 NUMBER OF OCCUPIED ORBITALS (BETA )          =   16
 TOTAL NUMBER OF ATOMS                        =    3
 THE NUCLEAR REPULSION ENERGY IS      102.3265420856

     LEBEDEV GRID-BASED DFT OPTIONS
     ------------------------------
     DFTTYP=PBE     
     NRAD  =      96     NLEB  =     302
     NRAD0 =      24     NLEB0 =     110
     SWOFF =    5.00E-03 (PURE SCF -> DFT)
     SWITCH=    3.00E-04 (COARSE -> TIGHT GRID)
     THRESH=    0.00E+00 GTHRE=    1.00E+00

 GRIMME'S EMPIRICAL DISPERSION CORRECTION= F

     $CONTRL OPTIONS
     ---------------
 SCFTYP=RHF          RUNTYP=ENERGY       EXETYP=RUN     
 MPLEVL=       0     CITYP =NONE         CCTYP =NONE         VBTYP =NONE    
 DFTTYP=PBE          TDDFT =NONE    
 MULT  =       1     ICHARG=       0     NZVAR =       0     COORD =ZMT     
 PP    =NONE         RELWFN=NONE         LOCAL =NONE         NUMGRD=       F
 ISPHER=       1     NOSYM =       0     MAXIT =      30     UNITS =ANGS    
 PLTORB=       F     MOLPLT=       F     AIMPAC=       F     FRIEND=        
 NPRINT=       7     IREST =       0     GEOM  =INPUT   
 NORMF =       0     NORMP =       0     ITOL  =      20     ICUT  =       9
 INTTYP=BEST         GRDTYP=BEST         QMTTOL= 1.0E-06

     $SYSTEM OPTIONS
     ---------------
  REPLICATED MEMORY=     1000000 WORDS (ON EVERY NODE).
 DISTRIBUTED MEMDDI=           0 MILLION WORDS IN AGGREGATE,
 MEMDDI DISTRIBUTED OVER   1 PROCESSORS IS           0 WORDS/PROCESSOR.
 TOTAL MEMORY REQUESTED ON EACH PROCESSOR=     1000000 WORDS.
 TIMLIM=      525600.00 MINUTES, OR     365.0 DAYS.
 PARALL= F  BALTYP=  DLB     KDIAG=    0  COREFL= F
 MXSEQ2=     300 MXSEQ3=     150

          ----------------
          PROPERTIES INPUT
          ----------------

     MOMENTS            FIELD           POTENTIAL          DENSITY
 IEMOM =       1   IEFLD =       0   IEPOT =       0   IEDEN =       0
 WHERE =COMASS     WHERE =NUCLEI     WHERE =NUCLEI     WHERE =NUCLEI  
 OUTPUT=BOTH       OUTPUT=BOTH       OUTPUT=BOTH       OUTPUT=BOTH    
 IEMINT=       0   IEFINT=       0                     IEDINT=       0
                                                       MORB  =       0
          EXTRAPOLATION IN EFFECT
          DIIS IN EFFECT
 ORBITAL PRINTING OPTION: NPREO=     1    49     2     1

     -------------------------------
     INTEGRAL TRANSFORMATION OPTIONS
     -------------------------------
     NWORD  =            0
     CUTOFF = 1.0E-09     MPTRAN =       0
     DIRTRF =       F     AOINTS =DUP     

          ----------------------
          INTEGRAL INPUT OPTIONS
          ----------------------
 NOPK  =       1 NORDER=       0 SCHWRZ=       F

   --- ENCODED Z MATRIX ---
 COORD  TYPE   I   J   K   L   M   N
    1      1    3   1
    2      1    2   1
    3      2    2   1   3

 THE DETERMINANT OF THE G MATRIX IS 10**(    -4)

 THE DETERMINANT OF THE G MATRIX IS 10**(    -4)
 * * * WARNING * * *
 YOUR B MATRIX HAS A SMALL DETERMINANT.
 THIS SUGGESTS YOU MAY HAVE BADLY CHOSEN COORDINATES.

     ------------------------------------------
     THE POINT GROUP IS CNV, NAXIS= 2, ORDER= 4
     ------------------------------------------

 -- VARIATIONAL SPACE WILL BE RESTRICTED TO PURE SPHERICAL HARMONICS ONLY --
 AFTER EXCLUDING CONTAMINANT COMBINATIONS FROM THE CARTESIAN GAUSSIAN BASIS
 SET, THE NUMBER OF SPHERICAL HARMONICS KEPT IN THE VARIATION SPACE IS   46

     DIMENSIONS OF THE SYMMETRY SUBSPACES ARE
 A1  =   19     A2  =    5     B1  =   14     B2  =    8

 ..... DONE SETTING UP THE RUN .....
 STEP CPU TIME =     0.01 TOTAL CPU TIME =        0.0 (    0.0 MIN)
 TOTAL WALL CLOCK TIME=        0.0 SECONDS, CPU UTILIZATION IS  33.33%

          ********************
          1 ELECTRON INTEGRALS
          ********************
 ...... END OF ONE-ELECTRON INTEGRALS ......
 STEP CPU TIME =     0.00 TOTAL CPU TIME =        0.0 (    0.0 MIN)
 TOTAL WALL CLOCK TIME=        0.0 SECONDS, CPU UTILIZATION IS  33.33%

          -------------
          GUESS OPTIONS
          -------------
          GUESS =HUCKEL            NORB  =       0          NORDER=       0
          MIX   =       F          PRTMO =       F          PUNMO =       F
          TOLZ  = 1.0E-08          TOLE  = 1.0E-05
          SYMDEN=       F          PURIFY=       F

 INITIAL GUESS ORBITALS GENERATED BY HUCKEL   ROUTINE.
 HUCKEL GUESS REQUIRES     21583 WORDS.

 STATISTICS FOR GENERATION OF SYMMETRY ORBITAL -Q- MATRIX
 NUMBER OF CARTESIAN ATOMIC ORBITALS=         49
 NUMBER OF SPHERICAL CONTAMINANTS DROPPED=     3
 NUMBER OF LINEARLY DEPENDENT MOS DROPPED=     0
 TOTAL NUMBER OF MOS IN VARIATION SPACE=      46

 SYMMETRIES FOR INITIAL GUESS ORBITALS FOLLOW.   BOTH SET(S).
    16 ORBITALS ARE OCCUPIED (    7 CORE ORBITALS).
     8=A1       9=?B1     10=A1      11=B2      12=?A1     13=B1      14=A2  
    15=?B1     16=?A1     17=B2      18=A1      19=B1      20=A1      21=A1  
    22=A1      23=A1      24=A1      25=A1      26=A1  
 ...... END OF INITIAL ORBITAL SELECTION ......
 STEP CPU TIME =     0.01 TOTAL CPU TIME =        0.0 (    0.0 MIN)
 TOTAL WALL CLOCK TIME=        0.0 SECONDS, CPU UTILIZATION IS  66.67%

                    ----------------------
                    AO INTEGRAL TECHNOLOGY
                    ----------------------
     S,P,L SHELL ROTATED AXIS INTEGRALS, REPROGRAMMED BY
        KAZUYA ISHIMURA (IMS) AND JOSE SIERRA (SYNSTAR).
     S,P,D,L SHELL ROTATED AXIS INTEGRALS PROGRAMMED BY
        KAZUYA ISHIMURA (INSTITUTE FOR MOLECULAR SCIENCE).
     S,P,D,F,G SHELL TO TOTAL QUARTET ANGULAR MOMENTUM SUM 5,
        ERIC PROGRAM BY GRAHAM FLETCHER (ELORET AND NASA ADVANCED
        SUPERCOMPUTING DIVISION, AMES RESEARCH CENTER).
     S,P,D,F,G,L SHELL GENERAL RYS QUADRATURE PROGRAMMED BY
        MICHEL DUPUIS (PACIFIC NORTHWEST NATIONAL LABORATORY).

          --------------------
          2 ELECTRON INTEGRALS
          --------------------

 THE -PK- OPTION IS OFF, THE INTEGRALS ARE NOT IN SUPERMATRIX FORM.
 STORING   15000 INTEGRALS/RECORD ON DISK, USING 12 BYTES/INTEGRAL.
 TWO ELECTRON INTEGRAL EVALUATION REQUIRES   90606 WORDS OF MEMORY.
 II,JST,KST,LST =  1  1  1  1 NREC =         1 INTLOC =    1
 II,JST,KST,LST =  2  1  1  1 NREC =         1 INTLOC =    2
 II,JST,KST,LST =  3  1  1  1 NREC =         1 INTLOC =    7
 II,JST,KST,LST =  4  1  1  1 NREC =         1 INTLOC =   22
 II,JST,KST,LST =  5  1  1  1 NREC =         1 INTLOC =   56
 II,JST,KST,LST =  6  1  1  1 NREC =         1 INTLOC =  125
 II,JST,KST,LST =  7  1  1  1 NREC =         1 INTLOC =  329
 II,JST,KST,LST =  8  1  1  1 NREC =         1 INTLOC =  776
 II,JST,KST,LST =  9  1  1  1 NREC =         1 INTLOC = 2864
 II,JST,KST,LST = 10  1  1  1 NREC =         1 INTLOC = 2864
 II,JST,KST,LST = 11  1  1  1 NREC =         1 INTLOC = 2864
 II,JST,KST,LST = 12  1  1  1 NREC =         1 INTLOC = 2864
 II,JST,KST,LST = 13  1  1  1 NREC =         1 INTLOC = 2864
 II,JST,KST,LST = 14  1  1  1 NREC =         1 INTLOC = 2864
 II,JST,KST,LST = 15  1  1  1 NREC =         1 INTLOC = 2864
 II,JST,KST,LST = 16  1  1  1 NREC =         1 INTLOC = 5105
 II,JST,KST,LST = 17  1  1  1 NREC =         1 INTLOC = 8267
 II,JST,KST,LST = 18  1  1  1 NREC =         1 INTLOC =12694
 II,JST,KST,LST = 19  1  1  1 NREC =         3 INTLOC =   92
 II,JST,KST,LST = 20  1  1  1 NREC =         5 INTLOC = 1090
 TOTAL NUMBER OF NONZERO TWO-ELECTRON INTEGRALS =              173686
         12 INTEGRAL RECORDS WERE STORED ON DISK FILE  8.
  ...... END OF TWO-ELECTRON INTEGRALS .....
 STEP CPU TIME =     0.16 TOTAL CPU TIME =        0.2 (    0.0 MIN)
 TOTAL WALL CLOCK TIME=        0.2 SECONDS, CPU UTILIZATION IS  94.74%

          --------------------------
               R-PBE SCF CALCULATION
          --------------------------

     NUCLEAR ENERGY =       102.3265420856
     MAXIT =   30     NPUNCH=    2
     EXTRAP=T  DAMP=F  SHIFT=F  RSTRCT=F  DIIS=T  DEM=F  SOSCF=F
         DENSITY MATRIX CONVERGENCE THRESHOLD=  1.00E-05
     COARSE -> FINE DFT GRID SWITCH THRESHOLD=  3.00E-04 (SWITCH IN $DFT)
                   HF -> DFT SWITCH THRESHOLD=  5.00E-03 (SWOFF IN $DFT)
     MEMORY REQUIRED FOR RHF ITERS=    183108 WORDS.

 DFT CODE IS SWITCHING FROM THE FINE GRID NRAD= 96,  NLEB=  302
                      TO THE COARSE GRID NRAD0= 24, NLEB0=  110

     EXCHANGE FUNCTIONAL   =PBE       
     CORRELATION FUNCTIONAL=PBE       
     DFT THRESHOLD         =.460E-07
     GRID CHANGE THRESHOLD =.300E-03
 FOR AN EULER-MACLAURIN QUADRATURE USING  96 RADIAL POINTS:
 SMALLEST GAUSSIAN PRIMITIVE EXPONENT=        0.1313100000 OF TYPE -P-
 ON ATOM NUMBER   1 HAS RADIAL NORMALIZATION=  1.000000
  LARGEST GAUSSIAN PRIMITIVE EXPONENT=    55510.0000000000 OF TYPE -S-
 ON ATOM NUMBER   1 HAS RADIAL NORMALIZATION=  0.999999
 DFT IS SWITCHED OFF, PERFORMING PURE SCF UNTIL SWOFF THRESHOLD IS REACHED.

 ITER EX DEM     TOTAL ENERGY        E CHANGE  DENSITY CHANGE    DIIS ERROR
   1  0  0     -546.0402712912  -546.0402712912   0.379141427   1.461405961
          * * *   INITIATING DIIS PROCEDURE   * * *
   2  1  0     -546.7917685934    -0.7514973022   0.426254052   0.265732295
   3  2  0     -546.8927097200    -0.1009411265   0.148996269   0.288184594
   4  3  0     -547.0742462587    -0.1815365388   0.037118998   0.021787740
   5  4  0     -547.0767715881    -0.0025253294   0.032502758   0.009751989
   6  5  0     -547.0775102854    -0.0007386973   0.017748468   0.004203326
   7  6  0     -547.0777311906    -0.0002209052   0.005772614   0.001240863
   8  7  0     -547.0777518257    -0.0000206351   0.000347000   0.000199032
 CONVERGED TO SWOFF, SO DFT CALCULATION IS NOW SWITCHED ON.
          * * *   INITIATING DIIS PROCEDURE   * * *
   9  8  0     -548.2334774353    -1.1557256096   0.244059747   0.104225073
  10  9  0     -548.2418881976    -0.0084107622   0.207128493   0.090919121
  11 10  0     -548.2398473243     0.0020408733   0.078364546   0.119344900
  12 11  0     -548.2714523351    -0.0316050108   0.012203064   0.018758224
  13 12  0     -548.2721618153    -0.0007094802   0.001115837   0.001282962
  14 13  0     -548.2721646671    -0.0000028518   0.000714732   0.000201692
  15 14  0     -548.2721648716    -0.0000002045   0.000067121   0.000028630
 DFT CODE IS SWITCHING BACK TO THE FINE GRID
          * * *   INITIATING DIIS PROCEDURE   * * *
  16 15  0     -548.2435483552     0.0286165165   0.012807085   0.010411092
  17 16  0     -548.2438670073    -0.0003186522   0.004532545   0.002952547
  18 17  0     -548.2438820202    -0.0000150128   0.001686788   0.001552615
  19 18  0     -548.2438868007    -0.0000047805   0.000806293   0.000730336
  20 19  0     -548.2438880535    -0.0000012528   0.000163266   0.000318698
  21 20  0     -548.2438882354    -0.0000001820   0.000024076   0.000007976
  22 21  0     -548.2438882357    -0.0000000002   0.000004446   0.000001173
  23 22  0     -548.2438882357     0.0000000000   0.000000862   0.000000207

          -----------------
          DENSITY CONVERGED
          -----------------
     TIME TO FORM FOCK OPERATORS=       4.3 SECONDS (       0.2 SEC/ITER)
     TIME TO SOLVE SCF EQUATIONS=       0.0 SECONDS (       0.0 SEC/ITER)

 FINAL R-PBE ENERGY IS     -548.2438882357 AFTER  23 ITERATIONS
 DFT EXCHANGE + CORRELATION ENERGY =       -42.4711216613
 TOTAL ELECTRON NUMBER             =        32.0000010607

          ------------
          EIGENVECTORS
          ------------

                      1          2          3          4          5
                  -88.2142   -18.8139   -18.8138    -7.8346    -5.8562
                     A1         B1         A1         A1         B1  
    1  S  1  S    1.002984   0.000000  -0.000041  -0.274052   0.000000
    2  S  1  S   -0.010290   0.000000  -0.000346   1.039342   0.000000
    3  S  1  S    0.001834   0.000000  -0.000701   0.040897   0.000000
    4  S  1  S   -0.000621   0.000000   0.009186  -0.009977   0.000000
    5  S  1  X    0.000000   0.000009   0.000000   0.000000   0.996630
    6  S  1  Y    0.000000   0.000000   0.000000   0.000000   0.000000
    7  S  1  Z    0.000067   0.000000  -0.000031   0.013098   0.000000
    8  S  1  X    0.000000  -0.001681   0.000000   0.000000   0.009335
    9  S  1  Y    0.000000   0.000000   0.000000   0.000000   0.000000
   10  S  1  Z    0.000074   0.000000   0.000765   0.001576   0.000000
   11  S  1  X    0.000000  -0.007121   0.000000   0.000000  -0.000374
   12  S  1  Y    0.000000   0.000000   0.000000   0.000000   0.000000
   13  S  1  Z    0.000018   0.000000   0.002752  -0.000287   0.000000
   14  S  1 XX    0.000169   0.000000   0.000744   0.001742   0.000000
   15  S  1 YY   -0.000098   0.000000  -0.000617  -0.000904   0.000000
   16  S  1 ZZ   -0.000071   0.000000  -0.000127  -0.000838   0.000000
   17  S  1 XY    0.000000   0.000000   0.000000   0.000000   0.000000
   18  S  1 XZ    0.000000  -0.000529   0.000000   0.000000   0.001104
   19  S  1 YZ    0.000000   0.000000   0.000000   0.000000   0.000000
   20  O  2  S    0.000014   0.703292   0.703268  -0.000006   0.000381
   21  O  2  S    0.000059   0.026116   0.025805   0.000114  -0.000197
   22  O  2  S   -0.000169  -0.013747  -0.012458  -0.000874  -0.000339
   23  O  2  X   -0.000049   0.000852   0.001040  -0.000477  -0.000641
   24  O  2  Y    0.000000   0.000000   0.000000   0.000000   0.000000
   25  O  2  Z    0.000018  -0.000418  -0.000110   0.000160   0.000254
   26  O  2  X   -0.000191  -0.002702  -0.003755  -0.001573  -0.000132
   27  O  2  Y    0.000000   0.000000   0.000000   0.000000   0.000000
   28  O  2  Z    0.000083   0.001860   0.000392   0.000780   0.000224
   29  O  2 XX   -0.000123  -0.000232  -0.000478  -0.000591  -0.000506
   30  O  2 YY    0.000080   0.000192   0.000263   0.000398   0.000369
   31  O  2 ZZ    0.000043   0.000039   0.000215   0.000193   0.000137
   32  O  2 XY    0.000000   0.000000   0.000000   0.000000   0.000000
   33  O  2 XZ    0.000098   0.000291   0.000177   0.000513   0.000527
   34  O  2 YZ    0.000000   0.000000   0.000000   0.000000   0.000000
   35  O  3  S    0.000014  -0.703292   0.703268  -0.000006  -0.000381
   36  O  3  S    0.000059  -0.026116   0.025805   0.000114   0.000197
   37  O  3  S   -0.000169   0.013747  -0.012458  -0.000874   0.000339
   38  O  3  X    0.000049   0.000852  -0.001040   0.000477  -0.000641
   39  O  3  Y    0.000000   0.000000   0.000000   0.000000   0.000000
   40  O  3  Z    0.000018   0.000418  -0.000110   0.000160  -0.000254
   41  O  3  X    0.000191  -0.002702   0.003755   0.001573  -0.000132
   42  O  3  Y    0.000000   0.000000   0.000000   0.000000   0.000000
   43  O  3  Z    0.000083  -0.001860   0.000392   0.000780  -0.000224
   44  O  3 XX   -0.000123   0.000232  -0.000478  -0.000591   0.000506
   45  O  3 YY    0.000080  -0.000192   0.000263   0.000398  -0.000369
   46  O  3 ZZ    0.000043  -0.000039   0.000215   0.000193  -0.000137
   47  O  3 XY    0.000000   0.000000   0.000000   0.000000   0.000000
   48  O  3 XZ   -0.000098   0.000291  -0.000177  -0.000513   0.000527
   49  O  3 YZ    0.000000   0.000000   0.000000   0.000000   0.000000

                      6          7          8          9         10
                   -5.8545    -5.8495    -1.0335    -0.9680    -0.5901
                     B2         A1         A1         B1         A1  
    1  S  1  S    0.000000   0.003698   0.050647   0.000000   0.064823
    2  S  1  S    0.000000  -0.014000  -0.146479   0.000000  -0.177597
    3  S  1  S    0.000000   0.000204   0.296074   0.000000   0.417900
    4  S  1  S    0.000000  -0.001066   0.146163   0.000000   0.362409
    5  S  1  X    0.000000   0.000000   0.000000   0.130479   0.000000
    6  S  1  Y    0.996901   0.000000   0.000000   0.000000   0.000000
    7  S  1  Z    0.000000   0.996884  -0.045294   0.000000   0.013358
    8  S  1  X    0.000000   0.000000   0.000000  -0.251127   0.000000
    9  S  1  Y    0.008900   0.000000   0.000000   0.000000   0.000000
   10  S  1  Z    0.000000   0.008562   0.089691   0.000000  -0.019273
   11  S  1  X    0.000000   0.000000   0.000000  -0.013395   0.000000
   12  S  1  Y   -0.000170   0.000000   0.000000   0.000000   0.000000
   13  S  1  Z    0.000000  -0.000255   0.001383   0.000000  -0.035518
   14  S  1 XX    0.000000  -0.000780   0.058921   0.000000  -0.021464
   15  S  1 YY    0.000000  -0.000320  -0.035413   0.000000   0.017858
   16  S  1 ZZ    0.000000   0.001100  -0.023508   0.000000   0.003607
   17  S  1 XY    0.000000   0.000000   0.000000   0.000000   0.000000
   18  S  1 XZ    0.000000   0.000000   0.000000  -0.054655   0.000000
   19  S  1 YZ    0.000832   0.000000   0.000000   0.000000   0.000000
   20  O  2  S    0.000000  -0.000159  -0.123804  -0.144975   0.105900
   21  O  2  S    0.000000  -0.000041   0.246436   0.291129  -0.218827
   22  O  2  S    0.000000   0.000725   0.276819   0.345680  -0.355663
   23  O  2  X    0.000000   0.000354   0.108919   0.102527   0.167664
   24  O  2  Y    0.000063   0.000000   0.000000   0.000000   0.000000
   25  O  2  Z    0.000000  -0.000074  -0.033402  -0.035569  -0.065468
   26  O  2  X    0.000000   0.000372   0.042964   0.037302   0.082777
   27  O  2  Y   -0.000053   0.000000   0.000000   0.000000   0.000000
   28  O  2  Z    0.000000  -0.000218  -0.008544  -0.016642  -0.026241
   29  O  2 XX    0.000000   0.000362   0.012505   0.007600   0.009192
   30  O  2 YY    0.000000  -0.000178  -0.005306  -0.003775  -0.006771
   31  O  2 ZZ    0.000000  -0.000184  -0.007199  -0.003826  -0.002421
   32  O  2 XY    0.000106   0.000000   0.000000   0.000000   0.000000
   33  O  2 XZ    0.000000  -0.000168  -0.004365  -0.006387  -0.007263
   34  O  2 YZ   -0.000062   0.000000   0.000000   0.000000   0.000000
   35  O  3  S    0.000000  -0.000159  -0.123804   0.144975   0.105900
   36  O  3  S    0.000000  -0.000041   0.246436  -0.291129  -0.218827
   37  O  3  S    0.000000   0.000725   0.276819  -0.345680  -0.355663
   38  O  3  X    0.000000  -0.000354  -0.108919   0.102527  -0.167664
   39  O  3  Y    0.000063   0.000000   0.000000   0.000000   0.000000
   40  O  3  Z    0.000000  -0.000074  -0.033402   0.035569  -0.065468
   41  O  3  X    0.000000  -0.000372  -0.042964   0.037302  -0.082777
   42  O  3  Y   -0.000053   0.000000   0.000000   0.000000   0.000000
   43  O  3  Z    0.000000  -0.000218  -0.008544   0.016642  -0.026241
   44  O  3 XX    0.000000   0.000362   0.012505  -0.007600   0.009192
   45  O  3 YY    0.000000  -0.000178  -0.005306   0.003775  -0.006771
   46  O  3 ZZ    0.000000  -0.000184  -0.007199   0.003826  -0.002421
   47  O  3 XY   -0.000106   0.000000   0.000000   0.000000   0.000000
   48  O  3 XZ    0.000000   0.000168   0.004365  -0.006387   0.007263
   49  O  3 YZ   -0.000062   0.000000   0.000000   0.000000   0.000000

                     11         12         13         14         15
                   -0.4465    -0.4367    -0.4292    -0.3409    -0.3282
                     B1         B2         A1         A2         B1  
    1  S  1  S    0.000000   0.000000  -0.009006   0.000000   0.000000
    2  S  1  S    0.000000   0.000000   0.036947   0.000000   0.000000
    3  S  1  S    0.000000   0.000000  -0.041995   0.000000   0.000000
    4  S  1  S    0.000000   0.000000  -0.157870   0.000000   0.000000
    5  S  1  X   -0.165997   0.000000   0.000000   0.000000  -0.015538
    6  S  1  Y    0.000000  -0.201812   0.000000   0.000000   0.000000
    7  S  1  Z    0.000000   0.000000  -0.196528   0.000000   0.000000
    8  S  1  X    0.393651   0.000000   0.000000   0.000000   0.030551
    9  S  1  Y    0.000000   0.470076   0.000000   0.000000   0.000000
   10  S  1  Z    0.000000   0.000000   0.455125   0.000000   0.000000
   11  S  1  X    0.018357   0.000000   0.000000   0.000000   0.081879
   12  S  1  Y    0.000000   0.251486   0.000000   0.000000   0.000000
   13  S  1  Z    0.000000   0.000000   0.226108   0.000000   0.000000
   14  S  1 XX    0.000000   0.000000  -0.043207   0.000000   0.000000
   15  S  1 YY    0.000000   0.000000  -0.014420   0.000000   0.000000
   16  S  1 ZZ    0.000000   0.000000   0.057627   0.000000   0.000000
   17  S  1 XY    0.000000   0.000000   0.000000  -0.128498   0.000000
   18  S  1 XZ    0.035340   0.000000   0.000000   0.000000  -0.121384
   19  S  1 YZ    0.000000   0.042751   0.000000   0.000000   0.000000
   20  O  2  S   -0.066718   0.000000   0.014801   0.000000   0.000011
   21  O  2  S    0.137288   0.000000  -0.030756   0.000000  -0.001406
   22  O  2  S    0.236009   0.000000  -0.053579   0.000000   0.021477
   23  O  2  X   -0.343014   0.000000   0.196869   0.000000   0.221780
   24  O  2  Y    0.000000   0.311479   0.000000   0.462104   0.000000
   25  O  2  Z    0.162945   0.000000   0.247075   0.000000   0.407432
   26  O  2  X   -0.190790   0.000000   0.128181   0.000000   0.149854
   27  O  2  Y    0.000000   0.184977   0.000000   0.324913   0.000000
   28  O  2  Z    0.102179   0.000000   0.148114   0.000000   0.284162
   29  O  2 XX   -0.009844   0.000000   0.017476   0.000000   0.009370
   30  O  2 YY    0.008120   0.000000  -0.004413   0.000000   0.000985
   31  O  2 ZZ    0.001724   0.000000  -0.013063   0.000000  -0.010355
   32  O  2 XY    0.000000   0.021621   0.000000   0.018873   0.000000
   33  O  2 XZ    0.012120   0.000000   0.012675   0.000000   0.016976
   34  O  2 YZ    0.000000  -0.006830   0.000000  -0.006534   0.000000
   35  O  3  S    0.066718   0.000000   0.014801   0.000000  -0.000011
   36  O  3  S   -0.137288   0.000000  -0.030756   0.000000   0.001406
   37  O  3  S   -0.236009   0.000000  -0.053579   0.000000  -0.021477
   38  O  3  X   -0.343014   0.000000  -0.196869   0.000000   0.221780
   39  O  3  Y    0.000000   0.311479   0.000000  -0.462104   0.000000
   40  O  3  Z   -0.162945   0.000000   0.247075   0.000000  -0.407432
   41  O  3  X   -0.190790   0.000000  -0.128181   0.000000   0.149854
   42  O  3  Y    0.000000   0.184977   0.000000  -0.324913   0.000000
   43  O  3  Z   -0.102179   0.000000   0.148114   0.000000  -0.284162
   44  O  3 XX    0.009844   0.000000   0.017476   0.000000  -0.009370
   45  O  3 YY   -0.008120   0.000000  -0.004413   0.000000  -0.000985
   46  O  3 ZZ   -0.001724   0.000000  -0.013063   0.000000   0.010355
   47  O  3 XY    0.000000  -0.021621   0.000000   0.018873   0.000000
   48  O  3 XZ    0.012120   0.000000  -0.012675   0.000000   0.016976
   49  O  3 YZ    0.000000  -0.006830   0.000000   0.006534   0.000000

                     16         17         18         19         20
                   -0.2622    -0.1686    -0.0776     0.1066     0.3566
                     A1         B2         A1         B1         B2  
    1  S  1  S    0.024301   0.000000   0.021331   0.000000   0.000000
    2  S  1  S   -0.118258   0.000000  -0.102172   0.000000   0.000000
    3  S  1  S    0.094436   0.000000   0.092038   0.000000   0.000000
    4  S  1  S    0.624447   0.000000   0.673094   0.000000   0.000000
    5  S  1  X    0.000000   0.000000   0.000000  -0.153165   0.000000
    6  S  1  Y    0.000000  -0.213282   0.000000   0.000000   0.284490
    7  S  1  Z    0.106527   0.000000  -0.180820   0.000000   0.000000
    8  S  1  X    0.000000   0.000000   0.000000   0.397364   0.000000
    9  S  1  Y    0.000000   0.541332   0.000000   0.000000  -1.104303
   10  S  1  Z   -0.257521   0.000000   0.474209   0.000000   0.000000
   11  S  1  X    0.000000   0.000000   0.000000   1.439915   0.000000
   12  S  1  Y    0.000000   0.475682   0.000000   0.000000   1.254350
   13  S  1  Z   -0.108742   0.000000   0.591574   0.000000   0.000000
   14  S  1 XX   -0.167794   0.000000  -0.149516   0.000000   0.000000
   15  S  1 YY    0.081411   0.000000   0.124295   0.000000   0.000000
   16  S  1 ZZ    0.086383   0.000000   0.025221   0.000000   0.000000
   17  S  1 XY    0.000000   0.000000   0.000000   0.000000   0.000000
   18  S  1 XZ    0.000000   0.000000   0.000000  -0.189461   0.000000
   19  S  1 YZ    0.000000  -0.033817   0.000000   0.000000  -0.194463
   20  O  2  S    0.007549   0.000000   0.036605  -0.067371   0.000000
   21  O  2  S   -0.020183   0.000000  -0.076728   0.106555   0.000000
   22  O  2  S   -0.073079   0.000000  -0.290297   0.775797   0.000000
   23  O  2  X   -0.212825   0.000000  -0.354135   0.124346   0.000000
   24  O  2  Y    0.000000  -0.391445   0.000000   0.000000  -0.055029
   25  O  2  Z    0.368734   0.000000  -0.174706  -0.226098   0.000000
   26  O  2  X   -0.156872   0.000000  -0.335918   0.274449   0.000000
   27  O  2  Y    0.000000  -0.328706   0.000000   0.000000  -0.109605
   28  O  2  Z    0.272769   0.000000  -0.155271  -0.258740   0.000000
   29  O  2 XX   -0.002171   0.000000  -0.000493   0.010128   0.000000
   30  O  2 YY    0.002797   0.000000   0.002714  -0.001490   0.000000
   31  O  2 ZZ   -0.000625   0.000000  -0.002221  -0.008637   0.000000
   32  O  2 XY    0.000000  -0.001466   0.000000   0.000000  -0.029268
   33  O  2 XZ    0.007543   0.000000   0.003865   0.002773   0.000000
   34  O  2 YZ    0.000000  -0.000586   0.000000   0.000000   0.004864
   35  O  3  S    0.007549   0.000000   0.036605   0.067371   0.000000
   36  O  3  S   -0.020183   0.000000  -0.076728  -0.106555   0.000000
   37  O  3  S   -0.073079   0.000000  -0.290297  -0.775797   0.000000
   38  O  3  X    0.212825   0.000000   0.354135   0.124346   0.000000
   39  O  3  Y    0.000000  -0.391445   0.000000   0.000000  -0.055029
   40  O  3  Z    0.368734   0.000000  -0.174706   0.226098   0.000000
   41  O  3  X    0.156872   0.000000   0.335918   0.274449   0.000000
   42  O  3  Y    0.000000  -0.328706   0.000000   0.000000  -0.109605
   43  O  3  Z    0.272769   0.000000  -0.155271   0.258740   0.000000
   44  O  3 XX   -0.002171   0.000000  -0.000493  -0.010128   0.000000
   45  O  3 YY    0.002797   0.000000   0.002714   0.001490   0.000000
   46  O  3 ZZ   -0.000625   0.000000  -0.002221   0.008637   0.000000
   47  O  3 XY    0.000000   0.001466   0.000000   0.000000   0.029268
   48  O  3 XZ   -0.007543   0.000000  -0.003865   0.002773   0.000000
   49  O  3 YZ    0.000000  -0.000586   0.000000   0.000000   0.004864

                     21         22         23         24         25
                    0.3594     0.4006     0.4127     0.5152     0.5188
                     A1         A1         B1         B2         A1  
    1  S  1  S   -0.017561  -0.115823   0.000000   0.000000  -0.000100
    2  S  1  S   -0.094315  -0.394523   0.000000   0.000000  -0.018289
    3  S  1  S   -0.305958  -1.753170   0.000000   0.000000  -0.023307
    4  S  1  S    0.684059   2.227424   0.000000   0.000000   0.172045
    5  S  1  X    0.000000   0.000000   0.300871   0.000000   0.000000
    6  S  1  Y    0.000000   0.000000   0.000000   0.059444   0.000000
    7  S  1  Z    0.272162  -0.056920   0.000000   0.000000   0.055539
    8  S  1  X    0.000000   0.000000  -1.087199   0.000000   0.000000
    9  S  1  Y    0.000000   0.000000   0.000000  -0.234908   0.000000
   10  S  1  Z   -1.041270   0.233465   0.000000   0.000000  -0.216595
   11  S  1  X    0.000000   0.000000   1.448728   0.000000   0.000000
   12  S  1  Y    0.000000   0.000000   0.000000   0.228549   0.000000
   13  S  1  Z    1.312998  -0.086258   0.000000   0.000000   0.262739
   14  S  1 XX    0.180676  -0.023904   0.000000   0.000000  -0.024991
   15  S  1 YY    0.068613   0.009228   0.000000   0.000000  -0.805822
   16  S  1 ZZ   -0.249289   0.014676   0.000000   0.000000   0.830813
   17  S  1 XY    0.000000   0.000000   0.000000   0.000000   0.000000
   18  S  1 XZ    0.000000   0.000000   0.291033   0.000000   0.000000
   19  S  1 YZ    0.000000   0.000000   0.000000   0.950880   0.000000
   20  O  2  S    0.013495   0.014013  -0.008130   0.000000   0.006804
   21  O  2  S    0.005332  -0.025836  -0.051491   0.000000  -0.018559
   22  O  2  S   -0.338288  -0.340180   0.539632   0.000000  -0.083259
   23  O  2  X    0.099066   0.142071  -0.287928   0.000000  -0.054773
   24  O  2  Y    0.000000   0.000000   0.000000  -0.183063   0.000000
   25  O  2  Z   -0.078126  -0.092908   0.127096   0.000000  -0.192699
   26  O  2  X   -0.172068  -0.168363   0.079240   0.000000  -0.048574
   27  O  2  Y    0.000000   0.000000   0.000000   0.042869   0.000000
   28  O  2  Z   -0.046769   0.079705  -0.047890   0.000000   0.072092
   29  O  2 XX   -0.042885  -0.042102   0.035731   0.000000   0.006296
   30  O  2 YY    0.020667   0.029303  -0.030384   0.000000  -0.023350
   31  O  2 ZZ    0.022218   0.012799  -0.005347   0.000000   0.017053
   32  O  2 XY    0.000000   0.000000   0.000000   0.026779   0.000000
   33  O  2 XZ   -0.005511   0.038955  -0.045111   0.000000   0.029423
   34  O  2 YZ    0.000000   0.000000   0.000000   0.024557   0.000000
   35  O  3  S    0.013495   0.014013   0.008130   0.000000   0.006804
   36  O  3  S    0.005332  -0.025836   0.051491   0.000000  -0.018559
   37  O  3  S   -0.338288  -0.340180  -0.539632   0.000000  -0.083259
   38  O  3  X   -0.099066  -0.142071  -0.287928   0.000000   0.054773
   39  O  3  Y    0.000000   0.000000   0.000000  -0.183063   0.000000
   40  O  3  Z   -0.078126  -0.092908  -0.127096   0.000000  -0.192699
   41  O  3  X    0.172068   0.168363   0.079240   0.000000   0.048574
   42  O  3  Y    0.000000   0.000000   0.000000   0.042869   0.000000
   43  O  3  Z   -0.046769   0.079705   0.047890   0.000000   0.072092
   44  O  3 XX   -0.042885  -0.042102  -0.035731   0.000000   0.006296
   45  O  3 YY    0.020667   0.029303   0.030384   0.000000  -0.023350
   46  O  3 ZZ    0.022218   0.012799   0.005347   0.000000   0.017053
   47  O  3 XY    0.000000   0.000000   0.000000  -0.026779   0.000000
   48  O  3 XZ    0.005511  -0.038955  -0.045111   0.000000  -0.029423
   49  O  3 YZ    0.000000   0.000000   0.000000   0.024557   0.000000

                     26         27         28         29         30
                    0.5425     0.6439     0.6598     0.7688     0.7844
                     A2         B1         A1         A2         B1  
    1  S  1  S    0.000000   0.000000   0.019661   0.000000   0.000000
    2  S  1  S    0.000000   0.000000   0.021201   0.000000   0.000000
    3  S  1  S    0.000000   0.000000   0.259687   0.000000   0.000000
    4  S  1  S    0.000000   0.000000   1.198939   0.000000   0.000000
    5  S  1  X    0.000000  -0.158375   0.000000   0.000000  -0.026334
    6  S  1  Y    0.000000   0.000000   0.000000   0.000000   0.000000
    7  S  1  Z    0.000000   0.000000  -0.073268   0.000000   0.000000
    8  S  1  X    0.000000   0.780019   0.000000   0.000000   0.212701
    9  S  1  Y    0.000000   0.000000   0.000000   0.000000   0.000000
   10  S  1  Z    0.000000   0.000000   0.374974   0.000000   0.000000
   11  S  1  X    0.000000   0.347472   0.000000   0.000000  -0.314462
   12  S  1  Y    0.000000   0.000000   0.000000   0.000000   0.000000
   13  S  1  Z    0.000000   0.000000   0.124290   0.000000   0.000000
   14  S  1 XX    0.000000   0.000000   0.636054   0.000000   0.000000
   15  S  1 YY    0.000000   0.000000  -0.380955   0.000000   0.000000
   16  S  1 ZZ    0.000000   0.000000  -0.255098   0.000000   0.000000
   17  S  1 XY    0.864811   0.000000   0.000000   0.528796   0.000000
   18  S  1 XZ    0.000000   0.692195   0.000000   0.000000   0.182155
   19  S  1 YZ    0.000000   0.000000   0.000000   0.000000   0.000000
   20  O  2  S    0.000000  -0.058541   0.061631   0.000000   0.001792
   21  O  2  S    0.000000   0.178850  -0.173858   0.000000  -0.084115
   22  O  2  S    0.000000   0.396743  -0.477221   0.000000   0.028243
   23  O  2  X    0.000000  -0.090222   0.343303   0.000000  -0.335598
   24  O  2  Y    0.381839   0.000000   0.000000  -0.534790   0.000000
   25  O  2  Z    0.000000   0.253999  -0.010472   0.000000  -0.517343
   26  O  2  X    0.000000   0.782257  -1.061895   0.000000   0.535613
   27  O  2  Y   -0.111948   0.000000   0.000000   0.788923   0.000000
   28  O  2  Z    0.000000  -0.402018   0.306644   0.000000   0.635925
   29  O  2 XX    0.000000  -0.039849   0.000503   0.000000  -0.029930
   30  O  2 YY    0.000000   0.007395  -0.007068   0.000000   0.011299
   31  O  2 ZZ    0.000000   0.032453   0.006564   0.000000   0.018631
   32  O  2 XY   -0.056429   0.000000   0.000000  -0.056887   0.000000
   33  O  2 XZ    0.000000  -0.009167  -0.011643   0.000000  -0.006979
   34  O  2 YZ    0.032104   0.000000   0.000000   0.027680   0.000000
   35  O  3  S    0.000000   0.058541   0.061631   0.000000  -0.001792
   36  O  3  S    0.000000  -0.178850  -0.173858   0.000000   0.084115
   37  O  3  S    0.000000  -0.396743  -0.477221   0.000000  -0.028243
   38  O  3  X    0.000000  -0.090222  -0.343303   0.000000  -0.335598
   39  O  3  Y   -0.381839   0.000000   0.000000   0.534790   0.000000
   40  O  3  Z    0.000000  -0.253999  -0.010472   0.000000   0.517343
   41  O  3  X    0.000000   0.782257   1.061895   0.000000   0.535613
   42  O  3  Y    0.111948   0.000000   0.000000  -0.788923   0.000000
   43  O  3  Z    0.000000   0.402018   0.306644   0.000000  -0.635925
   44  O  3 XX    0.000000   0.039849   0.000503   0.000000   0.029930
   45  O  3 YY    0.000000  -0.007395  -0.007068   0.000000  -0.011299
   46  O  3 ZZ    0.000000  -0.032453   0.006564   0.000000  -0.018631
   47  O  3 XY   -0.056429   0.000000   0.000000  -0.056887   0.000000
   48  O  3 XZ    0.000000  -0.009167   0.011643   0.000000  -0.006979
   49  O  3 YZ   -0.032104   0.000000   0.000000  -0.027680   0.000000

                     31         32         33         34         35
                    0.8271     0.8489     0.8934     1.0407     1.6130
                     A1         B2         B1         A1         A1  
    1  S  1  S    0.009143   0.000000   0.000000  -0.019757  -0.017132
    2  S  1  S    0.055709   0.000000   0.000000  -0.227346  -0.178186
    3  S  1  S    0.174667   0.000000   0.000000  -0.512219  -0.390920
    4  S  1  S   -0.099002   0.000000   0.000000   0.833082   2.009654
    5  S  1  X    0.000000   0.000000  -0.045864   0.000000   0.000000
    6  S  1  Y    0.000000  -0.026118   0.000000   0.000000   0.000000
    7  S  1  Z   -0.028370   0.000000   0.000000  -0.051991  -0.009906
    8  S  1  X    0.000000   0.000000  -0.055041   0.000000   0.000000
    9  S  1  Y    0.000000   0.107462   0.000000   0.000000   0.000000
   10  S  1  Z    0.136976   0.000000   0.000000   0.140883   0.114621
   11  S  1  X    0.000000   0.000000   0.295582   0.000000   0.000000
   12  S  1  Y    0.000000  -0.722507   0.000000   0.000000   0.000000
   13  S  1  Z   -0.694102   0.000000   0.000000   0.063732   0.612191
   14  S  1 XX    0.156124   0.000000   0.000000   0.985774   0.319390
   15  S  1 YY    0.143494   0.000000   0.000000  -0.581874  -0.231257
   16  S  1 ZZ   -0.299619   0.000000   0.000000  -0.403900  -0.088133
   17  S  1 XY    0.000000   0.000000   0.000000   0.000000   0.000000
   18  S  1 XZ    0.000000   0.000000   0.749017   0.000000   0.000000
   19  S  1 YZ    0.000000  -0.246686   0.000000   0.000000   0.000000
   20  O  2  S   -0.006310   0.000000  -0.016320   0.033578  -0.001964
   21  O  2  S    0.109406   0.000000   0.051652  -0.113557   1.180011
   22  O  2  S   -0.027502   0.000000   0.209215  -0.347772  -1.896641
   23  O  2  X   -0.157581   0.000000   0.535639  -0.507937   0.050232
   24  O  2  Y    0.000000  -0.611750   0.000000   0.000000   0.000000
   25  O  2  Z   -0.571386   0.000000  -0.231069   0.223731   0.072199
   26  O  2  X    0.194487   0.000000  -0.396333   0.206247  -0.697933
   27  O  2  Y    0.000000   0.945355   0.000000   0.000000   0.000000
   28  O  2  Z    0.898554   0.000000   0.351737   0.009188   0.005486
   29  O  2 XX   -0.008331   0.000000  -0.031125  -0.057943   0.200607
   30  O  2 YY   -0.000641   0.000000  -0.022222  -0.006808  -0.112351
   31  O  2 ZZ    0.008973   0.000000   0.053347   0.064751  -0.088256
   32  O  2 XY    0.000000  -0.042044   0.000000   0.000000   0.000000
   33  O  2 XZ   -0.044529   0.000000  -0.071613  -0.052515  -0.057776
   34  O  2 YZ    0.000000   0.003381   0.000000   0.000000   0.000000
   35  O  3  S   -0.006310   0.000000   0.016320   0.033578  -0.001964
   36  O  3  S    0.109406   0.000000  -0.051652  -0.113557   1.180011
   37  O  3  S   -0.027502   0.000000  -0.209215  -0.347772  -1.896641
   38  O  3  X    0.157581   0.000000   0.535639   0.507937  -0.050232
   39  O  3  Y    0.000000  -0.611750   0.000000   0.000000   0.000000
   40  O  3  Z   -0.571386   0.000000   0.231069   0.223731   0.072199
   41  O  3  X   -0.194487   0.000000  -0.396333  -0.206247   0.697933
   42  O  3  Y    0.000000   0.945355   0.000000   0.000000   0.000000
   43  O  3  Z    0.898554   0.000000  -0.351737   0.009188   0.005486
   44  O  3 XX   -0.008331   0.000000   0.031125  -0.057943   0.200607
   45  O  3 YY   -0.000641   0.000000   0.022222  -0.006808  -0.112351
   46  O  3 ZZ    0.008973   0.000000  -0.053347   0.064751  -0.088256
   47  O  3 XY    0.000000   0.042044   0.000000   0.000000   0.000000
   48  O  3 XZ    0.044529   0.000000  -0.071613   0.052515   0.057776
   49  O  3 YZ    0.000000   0.003381   0.000000   0.000000   0.000000

                     36         37         38         39         40
                    1.6969     2.0558     2.0559     2.0678     2.0773
                     B1         A2         B1         B2         A1  
    1  S  1  S    0.000000   0.000000   0.000000   0.000000  -0.002566
    2  S  1  S    0.000000   0.000000   0.000000   0.000000  -0.013201
    3  S  1  S    0.000000   0.000000   0.000000   0.000000  -0.047065
    4  S  1  S    0.000000   0.000000   0.000000   0.000000   0.035389
    5  S  1  X   -0.024804   0.000000   0.000010   0.000000   0.000000
    6  S  1  Y    0.000000   0.000000   0.000000  -0.022901   0.000000
    7  S  1  Z    0.000000   0.000000   0.000000   0.000000   0.007340
    8  S  1  X    0.268457   0.000000  -0.004170   0.000000   0.000000
    9  S  1  Y    0.000000   0.000000   0.000000   0.075490   0.000000
   10  S  1  Z    0.000000   0.000000   0.000000   0.000000  -0.031192
   11  S  1  X    1.503581   0.000000   0.042153   0.000000   0.000000
   12  S  1  Y    0.000000   0.000000   0.000000   0.032008   0.000000
   13  S  1  Z    0.000000   0.000000   0.000000   0.000000   0.009821
   14  S  1 XX    0.000000   0.000000   0.000000   0.000000   0.047504
   15  S  1 YY    0.000000   0.000000   0.000000   0.000000  -0.109680
   16  S  1 ZZ    0.000000   0.000000   0.000000   0.000000   0.062175
   17  S  1 XY    0.000000   0.024643   0.000000   0.000000   0.000000
   18  S  1 XZ    0.237571   0.000000  -0.024233   0.000000   0.000000
   19  S  1 YZ    0.000000   0.000000   0.000000  -0.041260   0.000000
   20  O  2  S   -0.001414   0.000000   0.000358   0.000000   0.001774
   21  O  2  S   -1.246137   0.000000  -0.022225   0.000000  -0.020617
   22  O  2  S    2.132941   0.000000   0.037091   0.000000   0.001403
   23  O  2  X    0.024775   0.000000   0.003741   0.000000  -0.023111
   24  O  2  Y    0.000000  -0.006143   0.000000   0.022432   0.000000
   25  O  2  Z    0.085529   0.000000   0.010566   0.000000   0.004861
   26  O  2  X    0.418816   0.000000  -0.005902   0.000000   0.016810
   27  O  2  Y    0.000000   0.010108   0.000000  -0.037670   0.000000
   28  O  2  Z   -0.385086   0.000000  -0.018778   0.000000  -0.003058
   29  O  2 XX   -0.142066   0.000000  -0.150277   0.000000  -0.003228
   30  O  2 YY    0.092993   0.000000   0.612927   0.000000   0.591336
   31  O  2 ZZ    0.049073   0.000000  -0.462650   0.000000  -0.588108
   32  O  2 XY    0.000000   0.334958   0.000000  -0.028006   0.000000
   33  O  2 XZ    0.145371   0.000000  -0.303416   0.000000  -0.191201
   34  O  2 YZ    0.000000   0.622946   0.000000   0.707944   0.000000
   35  O  3  S    0.001414   0.000000  -0.000358   0.000000   0.001774
   36  O  3  S    1.246137   0.000000   0.022225   0.000000  -0.020617
   37  O  3  S   -2.132941   0.000000  -0.037091   0.000000   0.001403
   38  O  3  X    0.024775   0.000000   0.003741   0.000000   0.023111
   39  O  3  Y    0.000000   0.006143   0.000000   0.022432   0.000000
   40  O  3  Z   -0.085529   0.000000  -0.010566   0.000000   0.004861
   41  O  3  X    0.418816   0.000000  -0.005902   0.000000  -0.016810
   42  O  3  Y    0.000000  -0.010108   0.000000  -0.037670   0.000000
   43  O  3  Z    0.385086   0.000000   0.018778   0.000000  -0.003058
   44  O  3 XX    0.142066   0.000000   0.150277   0.000000  -0.003228
   45  O  3 YY   -0.092993   0.000000  -0.612927   0.000000   0.591336
   46  O  3 ZZ   -0.049073   0.000000   0.462650   0.000000  -0.588108
   47  O  3 XY    0.000000   0.334958   0.000000   0.028006   0.000000
   48  O  3 XZ    0.145371   0.000000  -0.303416   0.000000   0.191201
   49  O  3 YZ    0.000000  -0.622946   0.000000   0.707944   0.000000

                     41         42         43         44         45
                    2.1447     2.2324     2.2665     2.3247     2.7826
                     B2         B1         A1         A2         B1  
    1  S  1  S    0.000000   0.000000  -0.007169   0.000000   0.000000
    2  S  1  S    0.000000   0.000000  -0.007509   0.000000   0.000000
    3  S  1  S    0.000000   0.000000  -0.101637   0.000000   0.000000
    4  S  1  S    0.000000   0.000000  -0.297785   0.000000   0.000000
    5  S  1  X    0.000000   0.042263   0.000000   0.000000  -0.214765
    6  S  1  Y    0.054463   0.000000   0.000000   0.000000   0.000000
    7  S  1  Z    0.000000   0.000000   0.063455   0.000000   0.000000
    8  S  1  X    0.000000  -0.228449   0.000000   0.000000   1.161960
    9  S  1  Y   -0.175370   0.000000   0.000000   0.000000   0.000000
   10  S  1  Z    0.000000   0.000000  -0.244444   0.000000   0.000000
   11  S  1  X    0.000000  -0.088675   0.000000   0.000000   0.454561
   12  S  1  Y   -0.134995   0.000000   0.000000   0.000000   0.000000
   13  S  1  Z    0.000000   0.000000  -0.236691   0.000000   0.000000
   14  S  1 XX    0.000000   0.000000   0.222963   0.000000   0.000000
   15  S  1 YY    0.000000   0.000000   0.060677   0.000000   0.000000
   16  S  1 ZZ    0.000000   0.000000  -0.283639   0.000000   0.000000
   17  S  1 XY    0.000000   0.000000   0.000000   0.508967   0.000000
   18  S  1 XZ    0.000000   0.375475   0.000000   0.000000   0.544087
   19  S  1 YZ   -0.210601   0.000000   0.000000   0.000000   0.000000
   20  O  2  S    0.000000  -0.001939   0.000905   0.000000  -0.029883
   21  O  2  S    0.000000   0.186578  -0.263160   0.000000  -0.555599
   22  O  2  S    0.000000  -0.232505   0.378378   0.000000   1.205531
   23  O  2  X    0.000000   0.060933  -0.104038   0.000000   0.034454
   24  O  2  Y   -0.064895   0.000000   0.000000  -0.034801   0.000000
   25  O  2  Z    0.000000  -0.067710  -0.035158   0.000000   0.004679
   26  O  2  X    0.000000  -0.081572   0.259966   0.000000   0.639541
   27  O  2  Y    0.148515   0.000000   0.000000   0.158347   0.000000
   28  O  2  Z    0.000000   0.172334   0.130948   0.000000  -0.227396
   29  O  2 XX    0.000000   0.294048   0.506440   0.000000   0.740197
   30  O  2 YY    0.000000   0.149937  -0.131610   0.000000  -0.371930
   31  O  2 ZZ    0.000000  -0.443986  -0.374829   0.000000  -0.368267
   32  O  2 XY    0.722743   0.000000   0.000000   0.658610   0.000000
   33  O  2 XZ    0.000000   0.564346   0.496552   0.000000  -0.346421
   34  O  2 YZ    0.020807   0.000000   0.000000  -0.347622   0.000000
   35  O  3  S    0.000000   0.001939   0.000905   0.000000   0.029883
   36  O  3  S    0.000000  -0.186578  -0.263160   0.000000   0.555599
   37  O  3  S    0.000000   0.232505   0.378378   0.000000  -1.205531
   38  O  3  X    0.000000   0.060933   0.104038   0.000000   0.034454
   39  O  3  Y   -0.064895   0.000000   0.000000   0.034801   0.000000
   40  O  3  Z    0.000000   0.067710  -0.035158   0.000000  -0.004679
   41  O  3  X    0.000000  -0.081572  -0.259966   0.000000   0.639541
   42  O  3  Y    0.148515   0.000000   0.000000  -0.158347   0.000000
   43  O  3  Z    0.000000  -0.172334   0.130948   0.000000   0.227396
   44  O  3 XX    0.000000  -0.294048   0.506440   0.000000  -0.740197
   45  O  3 YY    0.000000  -0.149937  -0.131610   0.000000   0.371930
   46  O  3 ZZ    0.000000   0.443986  -0.374829   0.000000   0.368267
   47  O  3 XY   -0.722743   0.000000   0.000000   0.658610   0.000000
   48  O  3 XZ    0.000000   0.564346  -0.496552   0.000000  -0.346421
   49  O  3 YZ    0.020807   0.000000   0.000000   0.347622   0.000000

                     46
                    2.7926
                     A1  
    1  S  1  S   -0.041810
    2  S  1  S    0.021744
    3  S  1  S   -0.491749
    4  S  1  S   -1.326749
    5  S  1  X    0.000000
    6  S  1  Y    0.000000
    7  S  1  Z    0.074999
    8  S  1  X    0.000000
    9  S  1  Y    0.000000
   10  S  1  Z   -0.428031
   11  S  1  X    0.000000
   12  S  1  Y    0.000000
   13  S  1  Z   -0.185359
   14  S  1 XX   -0.851843
   15  S  1 YY    0.481205
   16  S  1 ZZ    0.370638
   17  S  1 XY    0.000000
   18  S  1 XZ    0.000000
   19  S  1 YZ    0.000000
   20  O  2  S   -0.034339
   21  O  2  S   -0.590949
   22  O  2  S    1.345565
   23  O  2  X    0.043908
   24  O  2  Y    0.000000
   25  O  2  Z   -0.031753
   26  O  2  X    0.735238
   27  O  2  Y    0.000000
   28  O  2  Z   -0.280013
   29  O  2 XX    0.576594
   30  O  2 YY   -0.426136
   31  O  2 ZZ   -0.150459
   32  O  2 XY    0.000000
   33  O  2 XZ   -0.583810
   34  O  2 YZ    0.000000
   35  O  3  S   -0.034339
   36  O  3  S   -0.590949
   37  O  3  S    1.345565
   38  O  3  X   -0.043908
   39  O  3  Y    0.000000
   40  O  3  Z   -0.031753
   41  O  3  X   -0.735238
   42  O  3  Y    0.000000
   43  O  3  Z   -0.280013
   44  O  3 XX    0.576594
   45  O  3 YY   -0.426136
   46  O  3 ZZ   -0.150459
   47  O  3 XY    0.000000
   48  O  3 XZ    0.583810
   49  O  3 YZ    0.000000
 ...... END OF RHF CALCULATION ......
 STEP CPU TIME =     4.34 TOTAL CPU TIME =        4.5 (    0.1 MIN)
 TOTAL WALL CLOCK TIME=        4.5 SECONDS, CPU UTILIZATION IS  99.78%

     ---------------------------------------------------------------------
     PROPERTIES FOR THE PBE      DFT FUNCTIONAL (RHF  TYPE) DENSITY MATRIX
     ---------------------------------------------------------------------

          -----------------
          ENERGY COMPONENTS
          -----------------

         WAVEFUNCTION NORMALIZATION =       1.0000000000

                ONE ELECTRON ENERGY =    -958.8363219734
                TWO ELECTRON ENERGY =     308.2658916522
           NUCLEAR REPULSION ENERGY =     102.3265420856
                                      ------------------
                       TOTAL ENERGY =    -548.2438882357

 ELECTRON-ELECTRON POTENTIAL ENERGY =     308.2658916522
  NUCLEUS-ELECTRON POTENTIAL ENERGY =   -1506.3158523960
   NUCLEUS-NUCLEUS POTENTIAL ENERGY =     102.3265420856
                                      ------------------
             TOTAL POTENTIAL ENERGY =   -1095.7234186583
               TOTAL KINETIC ENERGY =     547.4795304226
                 VIRIAL RATIO (V/T) =       2.0013961395

          ---------------------------------------
          MULLIKEN AND LOWDIN POPULATION ANALYSES
          ---------------------------------------

     ATOMIC MULLIKEN POPULATION IN EACH MOLECULAR ORBITAL

                      1          2          3          4          5

                  2.000000   2.000000   2.000000   2.000000   2.000000

    1             2.000024   0.001610   0.001193   2.001581   1.999726
    2            -0.000012   0.999195   0.999403  -0.000790   0.000137
    3            -0.000012   0.999195   0.999403  -0.000790   0.000137

                      6          7          8          9         10

                  2.000000   2.000000   2.000000   2.000000   2.000000

    1             2.000002   1.999900   0.674681   0.343818   0.857864
    2            -0.000001   0.000050   0.662660   0.828091   0.571068
    3            -0.000001   0.000050   0.662660   0.828091   0.571068

                     11         12         13         14         15

                  2.000000   2.000000   2.000000   2.000000   2.000000

    1             0.377642   1.019649   0.975789   0.103158   0.124084
    2             0.811179   0.490176   0.512106   0.948421   0.937958
    3             0.811179   0.490176   0.512106   0.948421   0.937958

                     16

                  2.000000

    1             0.745236
    2             0.627382
    3             0.627382

               ----- POPULATIONS IN EACH AO -----
                             MULLIKEN      LOWDIN
              1  S  1  S      2.00023     1.99584
              2  S  1  S      2.01009     1.96717
              3  S  1  S      0.96593     0.59279
              4  S  1  S      0.91624     0.56011
              5  S  1  X      1.99666     1.95380
              6  S  1  Y      1.99615     1.95400
              7  S  1  Z      1.99692     1.96030
              8  S  1  X      0.67579     0.60124
              9  S  1  Y      0.63738     0.60118
             10  S  1  Z      0.79067     0.76343
             11  S  1  X      0.05250     0.24746
             12  S  1  Y      0.37715     0.43421
             13  S  1  Z      0.34948     0.44864
             14  S  1 XX      0.06982     0.32257
             15  S  1 YY      0.15689     0.28407
             16  S  1 ZZ      0.10316     0.28916
             17  S  1 XY      0.12193     0.12443
             18  S  1 XZ      0.00897     0.14790
             19  S  1 YZ      0.00000     0.00860
             20  O  2  S      1.99803     1.98076
             21  O  2  S      0.84054     0.65524
             22  O  2  S      1.05198     0.55844
             23  O  2  X      0.87585     0.83401
             24  O  2  Y      0.85987     0.82085
             25  O  2  Z      1.07999     1.04778
             26  O  2  X      0.43930     0.54637
             27  O  2  Y      0.57238     0.61011
             28  O  2  Z      0.64868     0.68897
             29  O  2 XX      0.00279     0.20989
             30  O  2 YY      0.00569     0.20330
             31  O  2 ZZ      0.00568     0.19938
             32  O  2 XY      0.00558     0.00702
             33  O  2 XZ      0.00066     0.00860
             34  O  2 YZ      0.00000     0.00080
             35  O  3  S      1.99803     1.98076
             36  O  3  S      0.84054     0.65524
             37  O  3  S      1.05198     0.55844
             38  O  3  X      0.87585     0.83401
             39  O  3  Y      0.85987     0.82085
             40  O  3  Z      1.07999     1.04778
             41  O  3  X      0.43930     0.54637
             42  O  3  Y      0.57238     0.61011
             43  O  3  Z      0.64868     0.68897
             44  O  3 XX      0.00279     0.20989
             45  O  3 YY      0.00569     0.20330
             46  O  3 ZZ      0.00568     0.19938
             47  O  3 XY      0.00558     0.00702
             48  O  3 XZ      0.00066     0.00860
             49  O  3 YZ      0.00000     0.00080

          ----- MULLIKEN ATOMIC OVERLAP POPULATIONS -----
          (OFF-DIAGONAL ELEMENTS NEED TO BE MULTIPLIED BY 2)

             1           2           3

    1   14.7067552
    2    0.2596010   8.1324035
    3    0.2596010  -0.0049830   8.1324035

          TOTAL MULLIKEN AND LOWDIN ATOMIC POPULATIONS
       ATOM         MULL.POP.    CHARGE          LOW.POP.     CHARGE
    1 S            15.225957    0.774043        15.256909    0.743091
    2 O             8.387021   -0.387021         8.371546   -0.371546
    3 O             8.387021   -0.387021         8.371546   -0.371546

          MULLIKEN SPHERICAL HARMONIC POPULATIONS
       ATOM           S       P       D      F      G      H      I    TOTAL
    1 S             5.89    8.87    0.46   0.00   0.00   0.00   0.00   15.23
    2 O             3.89    4.48    0.02   0.00   0.00   0.00   0.00    8.39
    3 O             3.89    4.48    0.02   0.00   0.00   0.00   0.00    8.39

          -------------------------------
          BOND ORDER AND VALENCE ANALYSIS     BOND ORDER THRESHOLD=0.050
          -------------------------------

                   BOND                       BOND                       BOND
  ATOM PAIR DIST  ORDER      ATOM PAIR DIST  ORDER      ATOM PAIR DIST  ORDER
    1   2  1.500  1.808        1   3  1.500  1.808        2   3  2.819  0.312

                       TOTAL       BONDED        FREE
      ATOM            VALENCE     VALENCE     VALENCE
    1 S                 3.616       3.616       0.000
    2 O                 2.121       2.121       0.000
    3 O                 2.121       2.121       0.000

          ---------------------
          ELECTROSTATIC MOMENTS
          ---------------------

 POINT   1           X           Y           Z (BOHR)    CHARGE
                 0.000000    0.000000    0.000000        0.00 (A.U.)
         DX          DY          DZ         /D/  (DEBYE)
     0.000000    0.000000   -0.830766    0.830766
 ...... END OF PROPERTY EVALUATION ......
 STEP CPU TIME =     0.00 TOTAL CPU TIME =        4.5 (    0.1 MIN)
 TOTAL WALL CLOCK TIME=        4.5 SECONDS, CPU UTILIZATION IS  99.78%
               580000  WORDS OF DYNAMIC MEMORY USED
 EXECUTION OF GAMESS TERMINATED NORMALLY Thu Feb 26 00:17:10 2015
 DDI: 263624 bytes (0.3 MB / 0 MWords) used by master data server.

 ----------------------------------------
 CPU timing information for all processes
 ========================================
 0: 4.507 + 0.26 = 4.534
 ----------------------------------------
 ddikick.x: exited gracefully.
----- accounting info -----
Files used on the master node dftfe.crc.nd.edu were:
-rw-r--r-- 1 pmehta1 campus   37475 Feb 26 00:17 /tmp/gamess.dat
-rw-r--r-- 1 pmehta1 campus     142 Feb 26 00:17 /tmp/gamess.F05
-rw-r--r-- 1 pmehta1 campus 2160288 Feb 26 00:17 /tmp/gamess.F08
-rw-r--r-- 1 pmehta1 campus 1220440 Feb 26 00:17 /tmp/gamess.F10
Thu Feb 26 00:17:13 EST 2015
0.241u 0.182s 0:07.97 5.2%	0+0k 0+120io 0pf+0w
