Au, FCC                                 
    4.000000000000000     
     0.000000    0.500000    0.500000
     0.500000    0.000000    0.500000
     0.500000    0.500000    0.000000
   1
Direct
  0.000000  0.000000  0.000000

