   1   1   1   0
  0.1600000E+02  0.2828427E-09  0.2828427E-09  0.2828427E-09  0.5000000E-15
   1.0000000000000000E-004
  CAR 
 Au, FCC                                 
     28.93647019     -5.37252971  301      6.54183238      1.00000000
     -5.373  0.0000E+00  0.0000E+00
     -5.258  0.0000E+00  0.0000E+00
     -5.144  0.0000E+00  0.0000E+00
     -5.029  0.0000E+00  0.0000E+00
     -4.915  0.0000E+00  0.0000E+00
     -4.801  0.0000E+00  0.0000E+00
     -4.686  0.0000E+00  0.0000E+00
     -4.572  0.0000E+00  0.0000E+00
     -4.458  0.0000E+00  0.0000E+00
     -4.343  0.2203E-14  0.2520E-15
     -4.229  0.1391E-09  0.1591E-10
     -4.115  0.6860E-06  0.7847E-07
     -4.000  0.2771E-03  0.3176E-04
     -3.886  0.1008E-01  0.1185E-02
     -3.771  0.3894E-01  0.5639E-02
     -3.657  0.1825E-01  0.7726E-02
     -3.543  0.1407E-01  0.9335E-02
     -3.428  0.9756E-01  0.2049E-01
     -3.314  0.8542E-01  0.3026E-01
     -3.200  0.1799E-01  0.3232E-01
     -3.085  0.8759E-01  0.4234E-01
     -2.971  0.9575E-01  0.5328E-01
     -2.857  0.2438E-01  0.5607E-01
     -2.742  0.1092E+00  0.6856E-01
     -2.628  0.1315E+00  0.8360E-01
     -2.513  0.4951E-01  0.8926E-01
     -2.399  0.2012E+00  0.1123E+00
     -2.285  0.1765E+00  0.1325E+00
     -2.170  0.1115E+00  0.1452E+00
     -2.056  0.8738E-01  0.1552E+00
     -1.942  0.2599E-01  0.1582E+00
     -1.827  0.1880E+00  0.1797E+00
     -1.713  0.3225E+00  0.2166E+00
     -1.599  0.1955E+00  0.2389E+00
     -1.484  0.3248E+00  0.2761E+00
     -1.370  0.3255E+00  0.3133E+00
     -1.255  0.5330E+00  0.3743E+00
     -1.141  0.5961E+00  0.4424E+00
     -1.027  0.8392E+00  0.5384E+00
     -0.912  0.9194E+00  0.6435E+00
     -0.798  0.9571E+00  0.7530E+00
     -0.684  0.1614E+01  0.9376E+00
     -0.569  0.1627E+01  0.1124E+01
     -0.455  0.1513E+01  0.1297E+01
     -0.341  0.1956E+01  0.1520E+01
     -0.226  0.1771E+01  0.1723E+01
     -0.112  0.1291E+01  0.1871E+01
      0.003  0.1536E+01  0.2046E+01
      0.117  0.1662E+01  0.2236E+01
      0.231  0.1220E+01  0.2376E+01
      0.346  0.1240E+01  0.2518E+01
      0.460  0.8091E+00  0.2610E+01
      0.574  0.1548E+01  0.2787E+01
      0.689  0.1849E+01  0.2999E+01
      0.803  0.1585E+01  0.3180E+01
      0.917  0.1635E+01  0.3367E+01
      1.032  0.1749E+01  0.3567E+01
      1.146  0.1513E+01  0.3740E+01
      1.261  0.1875E+01  0.3954E+01
      1.375  0.2265E+01  0.4213E+01
      1.489  0.2217E+01  0.4467E+01
      1.604  0.2035E+01  0.4700E+01
      1.718  0.2173E+01  0.4948E+01
      1.832  0.2709E+01  0.5258E+01
      1.947  0.3009E+01  0.5602E+01
      2.061  0.2040E+01  0.5835E+01
      2.175  0.1831E+01  0.6045E+01
      2.290  0.1580E+01  0.6225E+01
      2.404  0.1456E+01  0.6392E+01
      2.519  0.1594E+01  0.6574E+01
      2.633  0.1152E+01  0.6706E+01
      2.747  0.1156E+01  0.6838E+01
      2.862  0.1781E+01  0.7042E+01
      2.976  0.2559E+01  0.7334E+01
      3.090  0.2357E+01  0.7604E+01
      3.205  0.1519E+01  0.7778E+01
      3.319  0.9367E+00  0.7885E+01
      3.433  0.1468E+01  0.8052E+01
      3.548  0.2325E+01  0.8318E+01
      3.662  0.1703E+01  0.8513E+01
      3.777  0.7768E+00  0.8602E+01
      3.891  0.1003E+01  0.8717E+01
      4.005  0.2053E+01  0.8952E+01
      4.120  0.1727E+01  0.9149E+01
      4.234  0.1450E+01  0.9315E+01
      4.348  0.1657E+01  0.9504E+01
      4.463  0.2931E+01  0.9840E+01
      4.577  0.3145E+01  0.1020E+02
      4.691  0.1531E+01  0.1037E+02
      4.806  0.9588E+00  0.1048E+02
      4.920  0.5795E+00  0.1055E+02
      5.035  0.1529E+00  0.1057E+02
      5.149  0.3292E-01  0.1057E+02
      5.263  0.1197E+00  0.1059E+02
      5.378  0.4390E+00  0.1064E+02
      5.492  0.7318E+00  0.1072E+02
      5.606  0.4621E+00  0.1077E+02
      5.721  0.7988E-01  0.1078E+02
      5.835  0.1533E-01  0.1078E+02
      5.949  0.1644E+00  0.1080E+02
      6.064  0.3205E+00  0.1084E+02
      6.178  0.2257E+00  0.1086E+02
      6.293  0.4199E+00  0.1091E+02
      6.407  0.5305E+00  0.1097E+02
      6.521  0.2079E+00  0.1100E+02
      6.636  0.2289E+00  0.1102E+02
      6.750  0.1493E+00  0.1104E+02
      6.864  0.1738E+00  0.1106E+02
      6.979  0.2464E+00  0.1109E+02
      7.093  0.2587E+00  0.1112E+02
      7.207  0.2113E+00  0.1114E+02
      7.322  0.1947E+00  0.1116E+02
      7.436  0.3320E+00  0.1120E+02
      7.551  0.3308E+00  0.1124E+02
      7.665  0.3772E+00  0.1128E+02
      7.779  0.2623E+00  0.1131E+02
      7.894  0.3570E+00  0.1135E+02
      8.008  0.3112E+00  0.1139E+02
      8.122  0.2062E+00  0.1141E+02
      8.237  0.1726E+00  0.1143E+02
      8.351  0.2122E+00  0.1146E+02
      8.465  0.5164E-01  0.1146E+02
      8.580  0.1689E+00  0.1148E+02
      8.694  0.2929E+00  0.1152E+02
      8.809  0.4887E+00  0.1157E+02
      8.923  0.4574E+00  0.1162E+02
      9.037  0.1968E+00  0.1165E+02
      9.152  0.3469E-01  0.1165E+02
      9.266  0.1642E+00  0.1167E+02
      9.380  0.2009E+00  0.1169E+02
      9.495  0.3979E-01  0.1170E+02
      9.609  0.1726E+00  0.1172E+02
      9.723  0.4169E+00  0.1176E+02
      9.838  0.3300E+00  0.1180E+02
      9.952  0.1032E+00  0.1181E+02
     10.067  0.2904E+00  0.1185E+02
     10.181  0.9307E+00  0.1195E+02
     10.295  0.5213E+00  0.1201E+02
     10.410  0.9030E-01  0.1202E+02
     10.524  0.6904E-01  0.1203E+02
     10.638  0.4135E+00  0.1208E+02
     10.753  0.3764E+00  0.1212E+02
     10.867  0.2637E+00  0.1215E+02
     10.981  0.1690E+00  0.1217E+02
     11.096  0.3264E+00  0.1221E+02
     11.210  0.3903E+00  0.1225E+02
     11.325  0.2839E+00  0.1229E+02
     11.439  0.3100E+00  0.1232E+02
     11.553  0.1380E+00  0.1234E+02
     11.668  0.1840E+00  0.1236E+02
     11.782  0.3524E+00  0.1240E+02
     11.896  0.2438E+00  0.1243E+02
     12.011  0.3293E+00  0.1246E+02
     12.125  0.2737E+00  0.1249E+02
     12.239  0.2122E+00  0.1252E+02
     12.354  0.3484E+00  0.1256E+02
     12.468  0.4101E+00  0.1261E+02
     12.583  0.4522E+00  0.1266E+02
     12.697  0.2567E+00  0.1269E+02
     12.811  0.2605E+00  0.1272E+02
     12.926  0.4299E+00  0.1277E+02
     13.040  0.8131E+00  0.1286E+02
     13.154  0.5620E+00  0.1292E+02
     13.269  0.2539E+00  0.1295E+02
     13.383  0.1326E+00  0.1297E+02
     13.497  0.1427E-01  0.1297E+02
     13.612  0.1519E-01  0.1297E+02
     13.726  0.1658E+00  0.1299E+02
     13.841  0.3129E+00  0.1303E+02
     13.955  0.3877E+00  0.1307E+02
     14.069  0.1789E+00  0.1309E+02
     14.184  0.1388E+00  0.1311E+02
     14.298  0.2440E+00  0.1313E+02
     14.412  0.4677E+00  0.1319E+02
     14.527  0.3191E+00  0.1322E+02
     14.641  0.2790E+00  0.1326E+02
     14.755  0.3111E+00  0.1329E+02
     14.870  0.1848E+00  0.1331E+02
     14.984  0.7782E+00  0.1340E+02
     15.099  0.7978E+00  0.1349E+02
     15.213  0.2930E+00  0.1353E+02
     15.327  0.3520E+00  0.1357E+02
     15.442  0.1734E+00  0.1359E+02
     15.556  0.2717E+00  0.1362E+02
     15.670  0.4810E+00  0.1367E+02
     15.785  0.2337E+00  0.1370E+02
     15.899  0.1245E+00  0.1371E+02
     16.013  0.3611E+00  0.1375E+02
     16.128  0.3376E+00  0.1379E+02
     16.242  0.2128E+00  0.1382E+02
     16.357  0.3325E+00  0.1386E+02
     16.471  0.5619E+00  0.1392E+02
     16.585  0.4915E+00  0.1398E+02
     16.700  0.3799E+00  0.1402E+02
     16.814  0.4257E+00  0.1407E+02
     16.928  0.1601E+00  0.1409E+02
     17.043  0.2519E+00  0.1412E+02
     17.157  0.3585E+00  0.1416E+02
     17.271  0.7617E+00  0.1424E+02
     17.386  0.6252E+00  0.1431E+02
     17.500  0.5709E+00  0.1438E+02
     17.615  0.4682E+00  0.1443E+02
     17.729  0.3455E+00  0.1447E+02
     17.843  0.4328E+00  0.1452E+02
     17.958  0.5074E+00  0.1458E+02
     18.072  0.7886E+00  0.1467E+02
     18.186  0.8526E+00  0.1477E+02
     18.301  0.5773E+00  0.1483E+02
     18.415  0.4738E+00  0.1489E+02
     18.529  0.2663E+00  0.1492E+02
     18.644  0.3996E-01  0.1492E+02
     18.758  0.1208E+00  0.1494E+02
     18.872  0.2692E+00  0.1497E+02
     18.987  0.3544E+00  0.1501E+02
     19.101  0.2935E+00  0.1504E+02
     19.216  0.5995E+00  0.1511E+02
     19.330  0.1038E+01  0.1523E+02
     19.444  0.8602E+00  0.1533E+02
     19.559  0.5670E+00  0.1539E+02
     19.673  0.5308E+00  0.1545E+02
     19.787  0.3314E+00  0.1549E+02
     19.902  0.4690E+00  0.1555E+02
     20.016  0.5490E+00  0.1561E+02
     20.130  0.1823E+00  0.1563E+02
     20.245  0.3691E+00  0.1567E+02
     20.359  0.4656E+00  0.1572E+02
     20.474  0.2592E+00  0.1575E+02
     20.588  0.3712E+00  0.1580E+02
     20.702  0.5133E+00  0.1585E+02
     20.817  0.9456E+00  0.1596E+02
     20.931  0.8301E+00  0.1606E+02
     21.045  0.3438E+00  0.1610E+02
     21.160  0.2193E+00  0.1612E+02
     21.274  0.4139E+00  0.1617E+02
     21.388  0.5094E+00  0.1623E+02
     21.503  0.9956E+00  0.1634E+02
     21.617  0.9288E+00  0.1645E+02
     21.732  0.5074E+00  0.1651E+02
     21.846  0.2610E+00  0.1654E+02
     21.960  0.1698E+00  0.1656E+02
     22.075  0.3237E+00  0.1659E+02
     22.189  0.6839E+00  0.1667E+02
     22.303  0.9583E+00  0.1678E+02
     22.418  0.9390E+00  0.1689E+02
     22.532  0.5549E+00  0.1695E+02
     22.646  0.5656E+00  0.1702E+02
     22.761  0.4174E+00  0.1706E+02
     22.875  0.2951E+00  0.1710E+02
     22.990  0.6924E+00  0.1718E+02
     23.104  0.7863E+00  0.1727E+02
     23.218  0.5756E+00  0.1733E+02
     23.333  0.4443E+00  0.1738E+02
     23.447  0.2873E+00  0.1742E+02
     23.561  0.2079E+00  0.1744E+02
     23.676  0.4861E-01  0.1745E+02
     23.790  0.2182E-01  0.1745E+02
     23.904  0.1613E+00  0.1747E+02
     24.019  0.4106E+00  0.1751E+02
     24.133  0.5344E+00  0.1757E+02
     24.248  0.4568E+00  0.1763E+02
     24.362  0.2989E+00  0.1766E+02
     24.476  0.4318E+00  0.1771E+02
     24.591  0.3164E+00  0.1775E+02
     24.705  0.3344E-01  0.1775E+02
     24.819  0.2769E-01  0.1775E+02
     24.934  0.1984E+00  0.1778E+02
     25.048  0.1986E+00  0.1780E+02
     25.162  0.7362E-01  0.1781E+02
     25.277  0.5415E-01  0.1781E+02
     25.391  0.1606E+00  0.1783E+02
     25.506  0.2326E+00  0.1786E+02
     25.620  0.2158E+00  0.1788E+02
     25.734  0.1842E+00  0.1790E+02
     25.849  0.8916E-01  0.1791E+02
     25.963  0.2636E+00  0.1794E+02
     26.077  0.2369E+00  0.1797E+02
     26.192  0.4514E-01  0.1798E+02
     26.306  0.1497E-01  0.1798E+02
     26.420  0.3971E-01  0.1798E+02
     26.535  0.1378E-01  0.1798E+02
     26.649  0.5843E-03  0.1798E+02
     26.764  0.4588E-02  0.1798E+02
     26.878  0.3296E-01  0.1799E+02
     26.992  0.2793E-01  0.1799E+02
     27.107  0.2748E-02  0.1799E+02
     27.221  0.9585E-03  0.1799E+02
     27.335  0.1807E-01  0.1799E+02
     27.450  0.3894E-01  0.1800E+02
     27.564  0.1008E-01  0.1800E+02
     27.678  0.2771E-03  0.1800E+02
     27.793  0.6860E-06  0.1800E+02
     27.907  0.1391E-09  0.1800E+02
     28.022  0.2199E-14  0.1800E+02
     28.136  0.0000E+00  0.1800E+02
     28.250  0.0000E+00  0.1800E+02
     28.365  0.0000E+00  0.1800E+02
     28.479  0.0000E+00  0.1800E+02
     28.593  0.0000E+00  0.1800E+02
     28.708  0.0000E+00  0.1800E+02
     28.822  0.0000E+00  0.1800E+02
     28.936  0.0000E+00  0.1800E+02
     28.93647019     -5.37252971  301      6.54183238      1.00000000
     -5.373  0.0000E+00  0.0000E+00  0.0000E+00  0.0000E+00  0.0000E+00  0.0000E+00  0.0000E+00  0.0000E+00  0.0000E+00
     -5.258  0.0000E+00  0.0000E+00  0.0000E+00  0.0000E+00  0.0000E+00  0.0000E+00  0.0000E+00  0.0000E+00  0.0000E+00
     -5.144  0.0000E+00  0.0000E+00  0.0000E+00  0.0000E+00  0.0000E+00  0.0000E+00  0.0000E+00  0.0000E+00  0.0000E+00
     -5.029  0.0000E+00  0.0000E+00  0.0000E+00  0.0000E+00  0.0000E+00  0.0000E+00  0.0000E+00  0.0000E+00  0.0000E+00
     -4.915  0.0000E+00  0.0000E+00  0.0000E+00  0.0000E+00  0.0000E+00  0.0000E+00  0.0000E+00  0.0000E+00  0.0000E+00
     -4.801  0.0000E+00  0.0000E+00  0.0000E+00  0.0000E+00  0.0000E+00  0.0000E+00  0.0000E+00  0.0000E+00  0.0000E+00
     -4.686  0.0000E+00  0.0000E+00  0.0000E+00  0.0000E+00  0.0000E+00  0.0000E+00  0.0000E+00  0.0000E+00  0.0000E+00
     -4.572  0.0000E+00  0.0000E+00  0.0000E+00  0.0000E+00  0.0000E+00  0.0000E+00  0.0000E+00  0.0000E+00  0.0000E+00
     -4.458  0.0000E+00  0.0000E+00  0.0000E+00  0.0000E+00  0.0000E+00  0.0000E+00  0.0000E+00  0.0000E+00  0.0000E+00
     -4.343  0.1418E-14  0.4782E-17  0.4782E-17  0.4782E-17  0.1901E-18  0.1901E-18  0.7230E-28  0.1901E-18  0.2735E-28
     -4.229  0.8952E-10  0.3019E-12  0.3019E-12  0.3019E-12  0.1200E-13  0.1200E-13  0.4564E-23  0.1200E-13  0.1726E-23
     -4.115  0.4416E-06  0.1489E-08  0.1489E-08  0.1489E-08  0.5919E-10  0.5919E-10  0.2251E-19  0.5919E-10  0.8516E-20
     -4.000  0.1783E-03  0.6014E-06  0.6014E-06  0.6014E-06  0.2390E-07  0.2390E-07  0.9127E-17  0.2390E-07  0.3546E-17
     -3.886  0.6491E-02  0.2189E-04  0.2189E-04  0.2189E-04  0.8701E-06  0.8701E-06  0.5096E-14  0.8701E-06  0.1442E-13
     -3.771  0.2507E-01  0.8454E-04  0.8454E-04  0.8454E-04  0.3360E-05  0.3360E-05  0.5032E-10  0.3360E-05  0.1509E-09
     -3.657  0.1174E-01  0.3958E-04  0.3958E-04  0.4263E-04  0.1701E-05  0.1581E-05  0.4274E-07  0.1701E-05  0.1282E-06
     -3.543  0.8808E-02  0.2870E-04  0.2870E-04  0.2533E-03  0.1054E-04  0.1675E-05  0.3157E-05  0.1054E-04  0.9470E-05
     -3.428  0.6096E-01  0.1981E-03  0.1981E-03  0.1866E-02  0.7766E-04  0.1185E-04  0.2345E-04  0.7766E-04  0.7033E-04
     -3.314  0.5337E-01  0.1750E-03  0.1750E-03  0.1632E-02  0.6802E-04  0.1108E-04  0.2052E-04  0.6803E-04  0.6157E-04
     -3.200  0.1105E-01  0.1839E-03  0.1839E-03  0.1826E-03  0.1742E-04  0.6982E-04  0.3900E-05  0.1742E-04  0.1170E-04
     -3.085  0.5297E-01  0.1561E-02  0.1561E-02  0.1602E-03  0.9886E-04  0.6453E-03  0.1708E-04  0.9886E-04  0.5124E-04
     -2.971  0.5789E-01  0.1707E-02  0.1709E-02  0.1751E-03  0.1091E-03  0.7062E-03  0.1911E-04  0.1092E-03  0.5590E-04
     -2.857  0.1446E-01  0.3298E-03  0.6056E-03  0.1332E-03  0.8190E-04  0.1700E-03  0.6609E-04  0.9343E-04  0.7174E-05
     -2.742  0.6354E-01  0.6969E-03  0.4235E-02  0.6944E-03  0.3914E-03  0.5403E-03  0.8171E-03  0.5393E-03  0.9441E-07
     -2.628  0.7658E-01  0.5725E-03  0.5755E-02  0.5857E-03  0.2843E-03  0.4931E-03  0.1200E-02  0.4935E-03  0.1699E-05
     -2.513  0.2820E-01  0.5075E-03  0.1007E-02  0.1412E-02  0.6401E-03  0.1286E-03  0.3065E-03  0.1570E-03  0.1163E-03
     -2.399  0.1127E+00  0.3088E-02  0.2972E-03  0.9352E-02  0.4272E-02  0.4694E-03  0.6785E-03  0.6671E-03  0.8050E-03
     -2.285  0.9846E-01  0.2667E-02  0.3723E-03  0.8133E-02  0.3853E-02  0.6344E-03  0.5639E-03  0.9063E-03  0.6951E-03
     -2.170  0.5911E-01  0.1356E-02  0.1139E-02  0.4540E-02  0.3150E-02  0.1996E-02  0.1485E-03  0.2872E-02  0.3514E-03
     -2.056  0.4590E-01  0.1022E-02  0.1022E-02  0.3470E-02  0.2562E-02  0.1788E-02  0.8978E-04  0.2560E-02  0.2634E-03
     -1.942  0.1331E-01  0.6035E-03  0.9405E-03  0.3840E-03  0.3962E-03  0.1010E-02  0.3004E-03  0.4098E-03  0.7261E-04
     -1.827  0.9361E-01  0.4627E-02  0.9898E-02  0.3293E-03  0.2246E-02  0.8448E-02  0.4449E-02  0.2458E-02  0.3903E-03
     -1.713  0.1564E+00  0.6918E-02  0.1640E-01  0.9220E-03  0.7096E-02  0.1535E-01  0.7926E-02  0.7468E-02  0.4925E-03
     -1.599  0.8995E-01  0.3267E-02  0.1050E-01  0.7824E-03  0.6571E-02  0.1109E-01  0.5696E-02  0.6586E-02  0.1245E-03
     -1.484  0.1477E+00  0.3726E-02  0.2191E-01  0.9829E-03  0.9109E-02  0.1684E-01  0.1356E-01  0.8858E-02  0.3697E-04
     -1.370  0.1232E+00  0.2323E-02  0.1471E-01  0.2339E-02  0.2724E-01  0.3093E-01  0.8408E-02  0.2658E-01  0.1897E-03
     -1.255  0.1505E+00  0.3563E-02  0.4140E-02  0.9066E-02  0.8181E-01  0.8420E-01  0.2735E-02  0.7538E-01  0.1316E-02
     -1.141  0.1742E+00  0.6632E-02  0.1862E-02  0.1650E-01  0.8642E-01  0.7727E-01  0.2394E-01  0.6536E-01  0.2876E-02
     -1.027  0.2190E+00  0.8961E-02  0.9550E-02  0.2039E-01  0.1062E+00  0.8509E-01  0.1236E+00  0.6451E-01  0.3895E-02
     -0.912  0.1920E+00  0.6060E-02  0.1760E-01  0.8459E-02  0.1142E+00  0.1093E+00  0.1885E+00  0.8235E-01  0.2209E-02
     -0.798  0.1597E+00  0.5060E-02  0.2350E-01  0.5991E-02  0.1150E+00  0.6675E-01  0.3288E+00  0.4064E-01  0.8102E-02
     -0.684  0.2528E+00  0.7317E-02  0.3917E-01  0.1173E-01  0.3389E+00  0.1341E+00  0.4169E+00  0.7371E-01  0.1300E-01
     -0.569  0.2145E+00  0.9986E-02  0.2748E-01  0.1263E-01  0.4478E+00  0.1806E+00  0.3361E+00  0.8604E-01  0.8669E-02
     -0.455  0.1647E+00  0.1219E-01  0.2755E-01  0.8931E-02  0.5217E+00  0.1291E+00  0.3211E+00  0.5146E-01  0.5300E-02
     -0.341  0.1679E+00  0.1440E-01  0.3265E-01  0.9229E-02  0.7501E+00  0.1154E+00  0.4773E+00  0.4794E-01  0.8987E-02
     -0.226  0.1314E+00  0.1145E-01  0.2280E-01  0.1410E-01  0.6811E+00  0.1710E+00  0.3591E+00  0.5653E-01  0.3738E-01
     -0.112  0.9823E-01  0.1327E-01  0.9038E-02  0.2554E-01  0.4847E+00  0.1605E+00  0.1764E+00  0.3572E-01  0.7521E-01
      0.003  0.9008E-01  0.2013E-01  0.6716E-02  0.3218E-01  0.6275E+00  0.1777E+00  0.2320E+00  0.2616E-01  0.7999E-01
      0.117  0.6312E-01  0.2026E-01  0.8412E-02  0.2147E-01  0.5753E+00  0.2459E+00  0.3389E+00  0.2265E-01  0.1184E+00
      0.231  0.3096E-01  0.2018E-01  0.8189E-02  0.1785E-01  0.4472E+00  0.1307E+00  0.2645E+00  0.1636E-01  0.1011E+00
      0.346  0.3482E-01  0.2380E-01  0.1667E-01  0.2117E-01  0.3931E+00  0.1969E+00  0.2562E+00  0.2389E-01  0.8077E-01
      0.460  0.1341E-01  0.1503E-01  0.1077E-01  0.1447E-01  0.2651E+00  0.1385E+00  0.1749E+00  0.1604E-01  0.4033E-01
      0.574  0.1763E-01  0.2384E-01  0.2709E-01  0.2486E-01  0.5926E+00  0.2755E+00  0.2338E+00  0.3838E-01  0.9656E-01
      0.689  0.1943E-01  0.3661E-01  0.2828E-01  0.2688E-01  0.4878E+00  0.3392E+00  0.4448E+00  0.5445E-01  0.1442E+00
      0.803  0.1289E-01  0.3627E-01  0.1440E-01  0.2227E-01  0.1628E+00  0.3068E+00  0.6153E+00  0.8500E-01  0.1007E+00
      0.917  0.1879E-01  0.2196E-01  0.2014E-01  0.2188E-01  0.3586E+00  0.3556E+00  0.3380E+00  0.1768E+00  0.1135E+00
      1.032  0.2235E-01  0.1548E-01  0.2414E-01  0.2452E-01  0.4194E+00  0.3952E+00  0.2647E+00  0.1966E+00  0.1733E+00
      1.146  0.2423E-01  0.2029E-01  0.1370E-01  0.2740E-01  0.3261E+00  0.2749E+00  0.4021E+00  0.9643E-01  0.1367E+00
      1.261  0.3001E-01  0.2170E-01  0.1545E-01  0.2631E-01  0.3428E+00  0.3877E+00  0.5324E+00  0.1382E+00  0.1597E+00
      1.375  0.5761E-01  0.1824E-01  0.4745E-01  0.4442E-01  0.4927E+00  0.6439E+00  0.3326E+00  0.1708E+00  0.1823E+00
      1.489  0.4505E-01  0.1607E-01  0.5464E-01  0.4644E-01  0.5275E+00  0.6016E+00  0.2139E+00  0.1774E+00  0.2706E+00
      1.604  0.3327E-01  0.1446E-01  0.3168E-01  0.2615E-01  0.4812E+00  0.3575E+00  0.3894E+00  0.1811E+00  0.3059E+00
      1.718  0.2706E-01  0.1479E-01  0.2424E-01  0.1659E-01  0.4513E+00  0.3483E+00  0.5230E+00  0.3114E+00  0.2518E+00
      1.832  0.3482E-01  0.2032E-01  0.4742E-01  0.2337E-01  0.4711E+00  0.6238E+00  0.4625E+00  0.4329E+00  0.3330E+00
      1.947  0.6148E-01  0.3139E-01  0.9178E-01  0.4021E-01  0.5302E+00  0.7179E+00  0.3215E+00  0.5241E+00  0.3574E+00
      2.061  0.3331E-01  0.1718E-01  0.4088E-01  0.2393E-01  0.2211E+00  0.4438E+00  0.2252E+00  0.5434E+00  0.2917E+00
      2.175  0.4733E-01  0.1681E-01  0.5297E-01  0.2108E-01  0.1637E+00  0.4052E+00  0.2998E+00  0.3696E+00  0.2608E+00
      2.290  0.4288E-01  0.1581E-01  0.6126E-01  0.1669E-01  0.1178E+00  0.3870E+00  0.2482E+00  0.2562E+00  0.2573E+00
      2.404  0.1713E-01  0.1431E-01  0.4569E-01  0.1515E-01  0.1061E+00  0.3381E+00  0.1477E+00  0.3134E+00  0.3134E+00
      2.519  0.8409E-02  0.1353E-01  0.3398E-01  0.1560E-01  0.1397E+00  0.2270E+00  0.1767E+00  0.3866E+00  0.4522E+00
      2.633  0.8917E-02  0.4622E-02  0.1881E-01  0.7261E-02  0.5121E-01  0.1049E+00  0.2244E+00  0.2215E+00  0.4192E+00
      2.747  0.7563E-02  0.3466E-02  0.8858E-02  0.5199E-02  0.3655E-01  0.7074E-01  0.2244E+00  0.1997E+00  0.5207E+00
      2.862  0.1904E-01  0.1101E-01  0.2729E-01  0.1660E-01  0.5329E-01  0.2035E+00  0.2497E+00  0.2986E+00  0.7627E+00
      2.976  0.4161E-01  0.2486E-01  0.6951E-01  0.2853E-01  0.9507E-01  0.4110E+00  0.3846E+00  0.4470E+00  0.8271E+00
      3.090  0.4422E-01  0.2133E-01  0.5773E-01  0.2316E-01  0.1007E+00  0.2599E+00  0.4457E+00  0.3690E+00  0.8306E+00
      3.205  0.1754E-01  0.8317E-02  0.1431E-01  0.1275E-01  0.5735E-01  0.6399E-01  0.3893E+00  0.1670E+00  0.6829E+00
      3.319  0.4179E-02  0.2542E-02  0.3161E-02  0.7596E-02  0.2062E-01  0.4011E-01  0.2686E+00  0.1363E+00  0.4027E+00
      3.433  0.9519E-02  0.4081E-02  0.2076E-01  0.7171E-02  0.2859E-01  0.1994E+00  0.1382E+00  0.3748E+00  0.5999E+00
      3.548  0.2344E-01  0.6953E-02  0.4046E-01  0.9276E-02  0.1262E+00  0.2994E+00  0.3255E+00  0.5614E+00  0.7956E+00
      3.662  0.1798E-01  0.6850E-02  0.2080E-01  0.6575E-02  0.1247E+00  0.1376E+00  0.2708E+00  0.3524E+00  0.6703E+00
      3.777  0.5056E-02  0.7316E-02  0.9480E-02  0.6724E-02  0.3782E-01  0.1003E+00  0.6815E-01  0.1214E+00  0.3742E+00
      3.891  0.6077E-02  0.6166E-02  0.1264E-01  0.6403E-02  0.3192E-01  0.1645E+00  0.5200E-01  0.2663E+00  0.4051E+00
      4.005  0.1305E-01  0.4365E-02  0.2028E-01  0.5828E-02  0.8794E-01  0.2908E+00  0.1113E+00  0.7148E+00  0.7172E+00
      4.120  0.9157E-02  0.3932E-02  0.1188E-01  0.5743E-02  0.1215E+00  0.1573E+00  0.1270E+00  0.5539E+00  0.6686E+00
      4.234  0.9973E-02  0.3223E-02  0.8517E-02  0.7378E-02  0.1463E+00  0.9847E-01  0.1150E+00  0.5091E+00  0.4968E+00
      4.348  0.7005E-02  0.1816E-02  0.5856E-02  0.4440E-02  0.1537E+00  0.1484E+00  0.1538E+00  0.6778E+00  0.4532E+00
      4.463  0.2817E-01  0.6558E-02  0.2174E-01  0.1133E-01  0.2595E+00  0.3507E+00  0.2403E+00  0.1383E+01  0.5296E+00
      4.577  0.5166E-01  0.1410E-01  0.3018E-01  0.2198E-01  0.2708E+00  0.5030E+00  0.2523E+00  0.1338E+01  0.5369E+00
      4.691  0.2567E-01  0.7139E-02  0.7984E-02  0.1090E-01  0.1654E+00  0.2704E+00  0.1586E+00  0.5763E+00  0.2547E+00
      4.806  0.3658E-02  0.1034E-02  0.8628E-03  0.1880E-02  0.2859E-01  0.1157E+00  0.2652E-01  0.7145E+00  0.4729E-01
      4.920  0.4210E-02  0.2633E-02  0.2801E-02  0.1854E-02  0.2032E-02  0.9264E-01  0.5626E-02  0.4290E+00  0.2331E-01
      5.035  0.6726E-02  0.4305E-02  0.4315E-02  0.2467E-02  0.8092E-03  0.5372E-01  0.8402E-02  0.3370E-01  0.2588E-01
      5.149  0.2235E-02  0.1160E-02  0.1170E-02  0.5662E-03  0.1677E-03  0.1400E-01  0.2512E-02  0.4327E-03  0.7461E-02
      5.263  0.1078E-01  0.3329E-02  0.4231E-02  0.9608E-03  0.4036E-03  0.5293E-01  0.1089E-01  0.6174E-03  0.2539E-01
      5.378  0.4427E-01  0.1030E-01  0.2045E-01  0.3070E-02  0.2383E-02  0.1915E+00  0.4873E-01  0.4702E-02  0.7367E-01
      5.492  0.7950E-01  0.1519E-01  0.4308E-01  0.4700E-02  0.4079E-02  0.3096E+00  0.8536E-01  0.1586E-01  0.1027E+00
      5.606  0.5389E-01  0.9712E-02  0.3833E-01  0.5259E-02  0.4425E-02  0.1701E+00  0.6125E-01  0.2594E-01  0.3725E-01
      5.721  0.9459E-02  0.1862E-02  0.7507E-02  0.1347E-02  0.1139E-02  0.2565E-01  0.1178E-01  0.6726E-02  0.3537E-02
      5.835  0.2241E-02  0.1564E-03  0.3347E-02  0.1524E-03  0.7059E-04  0.2362E-02  0.1740E-02  0.2003E-02  0.9103E-04
      5.949  0.2257E-01  0.3237E-02  0.3375E-01  0.3544E-02  0.1318E-02  0.2296E-01  0.1755E-01  0.2279E-01  0.1776E-02
      6.064  0.3355E-01  0.1518E-01  0.5314E-01  0.1714E-01  0.7671E-02  0.4084E-01  0.3002E-01  0.3982E-01  0.1067E-01
      6.178  0.1721E-01  0.1710E-01  0.2215E-01  0.2157E-01  0.3448E-01  0.1357E-01  0.2461E-01  0.1280E-01  0.1077E-01
      6.293  0.4805E-01  0.2395E-01  0.1760E-01  0.3524E-01  0.1330E+00  0.5122E-02  0.7079E-01  0.5161E-02  0.9425E-02
      6.407  0.7915E-01  0.2104E-01  0.8782E-02  0.3419E-01  0.2057E+00  0.1850E-02  0.1034E+00  0.2349E-02  0.5034E-02
      6.521  0.3422E-01  0.6411E-02  0.1455E-02  0.1415E-01  0.8440E-01  0.2297E-03  0.3902E-01  0.7006E-03  0.2233E-02
      6.636  0.4084E-01  0.4378E-02  0.5262E-03  0.2404E-01  0.8933E-01  0.1696E-03  0.3087E-01  0.1803E-02  0.6530E-02
      6.750  0.2648E-01  0.2932E-02  0.2188E-02  0.1456E-01  0.5222E-01  0.4445E-02  0.1977E-01  0.2142E-02  0.4189E-02
      6.864  0.2885E-01  0.4707E-02  0.2045E-01  0.4056E-02  0.4382E-02  0.4666E-01  0.2267E-01  0.1143E-01  0.3173E-02
      6.979  0.4061E-01  0.5909E-02  0.3524E-01  0.3862E-02  0.1039E-02  0.6930E-01  0.3041E-01  0.1529E-01  0.3819E-02
      7.093  0.4149E-01  0.3242E-02  0.5575E-01  0.1590E-02  0.2339E-03  0.7028E-01  0.2458E-01  0.8918E-02  0.2490E-02
      7.207  0.2505E-01  0.1009E-01  0.3944E-01  0.8652E-02  0.5672E-03  0.5104E-01  0.1519E-01  0.4612E-02  0.9845E-02
      7.322  0.2270E-01  0.1673E-01  0.1870E-01  0.1475E-01  0.3369E-02  0.4362E-01  0.7544E-02  0.3638E-02  0.2026E-01
      7.436  0.6040E-01  0.1971E-01  0.2185E-01  0.2029E-01  0.1508E-01  0.7324E-01  0.1145E-01  0.1532E-01  0.3365E-01
      7.551  0.5505E-01  0.1434E-01  0.5018E-01  0.1370E-01  0.9926E-02  0.6811E-01  0.1383E-01  0.1378E-01  0.2344E-01
      7.665  0.6953E-01  0.8273E-02  0.8184E-01  0.2011E-02  0.7759E-03  0.9123E-01  0.2355E-01  0.9202E-02  0.1106E-01
      7.779  0.5150E-01  0.6203E-02  0.4609E-01  0.2625E-02  0.1837E-03  0.6270E-01  0.2225E-01  0.1555E-01  0.5483E-02
      7.894  0.6454E-01  0.1342E-01  0.5323E-01  0.9565E-02  0.1309E-02  0.8191E-01  0.3558E-01  0.2211E-01  0.7175E-02
      8.008  0.3199E-01  0.2290E-01  0.4483E-01  0.2189E-01  0.7270E-02  0.5709E-01  0.3723E-01  0.9920E-02  0.6290E-02
      8.122  0.1078E-01  0.1870E-01  0.3213E-01  0.1945E-01  0.7354E-02  0.2937E-01  0.2712E-01  0.5086E-02  0.3289E-02
      8.237  0.3368E-01  0.4006E-02  0.3312E-01  0.2583E-02  0.9031E-03  0.4396E-01  0.1655E-01  0.2541E-02  0.1113E-02
      8.351  0.4655E-01  0.2538E-02  0.4192E-01  0.3625E-03  0.5640E-04  0.5806E-01  0.1907E-01  0.2787E-02  0.1053E-02
      8.465  0.1329E-01  0.1149E-02  0.7099E-02  0.1419E-02  0.4140E-02  0.9765E-02  0.4013E-02  0.5068E-03  0.3151E-03
      8.580  0.5707E-01  0.7561E-02  0.1542E-02  0.1416E-01  0.4292E-01  0.6517E-03  0.8572E-02  0.4936E-03  0.1445E-02
      8.694  0.7848E-01  0.9659E-02  0.3328E-01  0.1739E-01  0.5158E-01  0.1809E-01  0.1468E-01  0.4433E-02  0.1775E-02
      8.809  0.7253E-01  0.6858E-02  0.1387E+00  0.7690E-02  0.1255E-01  0.8495E-01  0.2899E-01  0.2229E-01  0.7819E-03
      8.923  0.8198E-01  0.1722E-01  0.8417E-01  0.2401E-01  0.4143E-01  0.5244E-01  0.3294E-01  0.1717E-01  0.2317E-02
      9.037  0.4126E-01  0.1348E-01  0.1370E-01  0.2059E-01  0.3835E-01  0.4077E-02  0.1493E-01  0.2684E-02  0.1975E-02
      9.152  0.9106E-02  0.1699E-02  0.9891E-03  0.4550E-02  0.7621E-02  0.4132E-04  0.1837E-02  0.2780E-03  0.9542E-03
      9.266  0.5307E-01  0.2872E-02  0.2093E-03  0.2487E-01  0.3690E-01  0.4068E-04  0.4091E-02  0.1309E-02  0.7877E-02
      9.380  0.6495E-01  0.3502E-02  0.2603E-03  0.3043E-01  0.4514E-01  0.5857E-04  0.4998E-02  0.1610E-02  0.9644E-02
      9.495  0.1120E-01  0.8854E-03  0.2487E-02  0.4702E-02  0.6558E-02  0.1354E-02  0.1574E-02  0.1365E-02  0.1404E-02
      9.609  0.3420E-01  0.5952E-02  0.3820E-01  0.3989E-02  0.1000E-02  0.2222E-01  0.1078E-01  0.1609E-01  0.3996E-03
      9.723  0.1039E+00  0.1399E-01  0.7277E-01  0.1573E-01  0.1493E-01  0.4707E-01  0.1764E-01  0.3109E-01  0.4616E-02
      9.838  0.1019E+00  0.8870E-02  0.1969E-01  0.3425E-01  0.4379E-01  0.1409E-01  0.8094E-02  0.1841E-01  0.1214E-01
      9.952  0.3455E-01  0.2310E-02  0.2323E-02  0.1251E-01  0.1670E-01  0.2348E-02  0.2230E-02  0.5271E-02  0.4438E-02
     10.067  0.1206E+00  0.4897E-02  0.2691E-01  0.3725E-02  0.1764E-01  0.3852E-01  0.5777E-02  0.1489E-01  0.8712E-03
     10.181  0.3610E+00  0.1376E-01  0.1003E+00  0.1400E-01  0.6616E-01  0.1230E+00  0.1691E-01  0.5588E-01  0.2263E-02
     10.295  0.1887E+00  0.1289E-01  0.5576E-01  0.1478E-01  0.4695E-01  0.5833E-01  0.9063E-02  0.2908E-01  0.1063E-02
     10.410  0.3260E-01  0.5338E-02  0.5155E-02  0.5520E-02  0.1183E-01  0.4548E-02  0.1458E-02  0.2767E-02  0.6808E-04
     10.524  0.2579E-01  0.1512E-02  0.8536E-02  0.1607E-02  0.2222E-02  0.7270E-02  0.2976E-02  0.4331E-02  0.1450E-03
     10.638  0.1517E+00  0.8213E-02  0.5396E-01  0.8462E-02  0.9262E-02  0.4695E-01  0.1953E-01  0.2797E-01  0.8519E-03
     10.753  0.1259E+00  0.1124E-01  0.5070E-01  0.1100E-01  0.6791E-02  0.4507E-01  0.1966E-01  0.2281E-01  0.9224E-03
     10.867  0.5706E-01  0.1804E-01  0.4046E-01  0.1736E-01  0.1185E-02  0.3639E-01  0.1737E-01  0.5279E-02  0.1357E-02
     10.981  0.5042E-01  0.8211E-02  0.2342E-01  0.8355E-02  0.1789E-02  0.2101E-01  0.9328E-02  0.2676E-02  0.1928E-02
     11.096  0.1460E+00  0.4240E-02  0.3282E-01  0.5435E-02  0.1078E-01  0.3313E-01  0.9646E-02  0.1077E-01  0.5744E-02
     11.210  0.1571E+00  0.1277E-01  0.3119E-01  0.9812E-02  0.2121E-01  0.4412E-01  0.6407E-02  0.2659E-01  0.3151E-02
     11.325  0.8986E-01  0.1664E-01  0.3071E-01  0.1147E-01  0.1647E-01  0.3251E-01  0.2147E-02  0.1798E-01  0.1313E-02
     11.439  0.5386E-01  0.1910E-01  0.6770E-01  0.2073E-01  0.1733E-01  0.2823E-01  0.3263E-02  0.1046E-01  0.1972E-02
     11.553  0.1895E-01  0.7923E-02  0.3338E-01  0.1103E-01  0.8544E-02  0.1051E-01  0.1771E-02  0.4571E-02  0.1201E-02
     11.668  0.5277E-01  0.1066E-01  0.1021E-01  0.2149E-01  0.1948E-01  0.3546E-02  0.2635E-02  0.1357E-01  0.5968E-02
     11.782  0.1033E+00  0.2172E-01  0.1671E-01  0.4195E-01  0.3863E-01  0.5414E-02  0.5099E-02  0.2383E-01  0.1102E-01
     11.896  0.7054E-01  0.1944E-01  0.1483E-01  0.3005E-01  0.2500E-01  0.1471E-02  0.2673E-02  0.7547E-02  0.4486E-02
     12.011  0.8958E-01  0.2417E-01  0.2051E-01  0.4993E-01  0.3047E-01  0.6716E-03  0.4419E-02  0.1006E-01  0.6307E-02
     12.125  0.7636E-01  0.1353E-01  0.1532E-01  0.4779E-01  0.2183E-01  0.9235E-03  0.6027E-02  0.1308E-01  0.7243E-02
     12.239  0.3204E-01  0.9275E-02  0.1364E-01  0.5217E-01  0.2500E-01  0.2279E-02  0.5813E-02  0.7705E-02  0.8968E-02
     12.354  0.7554E-01  0.1299E-01  0.3004E-01  0.6762E-01  0.3336E-01  0.6020E-02  0.1012E-01  0.8034E-02  0.1494E-01
     12.468  0.1361E+00  0.1326E-01  0.6082E-01  0.3019E-01  0.1849E-01  0.1919E-01  0.8881E-02  0.5324E-02  0.1256E-01