    1    1    1    1
  0.1600000E+02  0.2828427E-09  0.2828427E-09  0.2828427E-09  0.5000000E-15
   1.0000000000000000E-004
  CAR 
 Au, FCC                                 
   11   60    9

  0.6250000E-01  0.6250000E-01  0.6250000E-01  0.3906250E-02
   1       -3.8130
   2        1.4244
   3        1.5262
   4        1.5262
   5        3.1484
   6        3.1484
   7       22.1241
   8       25.1870
   9       26.3633

  0.1875000E+00  0.6250000E-01  0.6250000E-01  0.1171875E-01
   1       -3.0805
   2        1.1856
   3        1.7527
   4        1.7756
   5        2.9150
   6        3.2750
   7       22.2305
   8       22.9897
   9       25.8938

  0.3125000E+00  0.6250000E-01  0.6250000E-01  0.1171875E-01
   1       -1.7529
   2        1.2978
   3        1.7767
   4        1.8362
   5        3.1872
   6        3.8445
   7       17.5532
   8       22.8005
   9       25.6353

  0.4375000E+00  0.6250000E-01  0.6250000E-01  0.1171875E-01
   1       -1.2641
   2        1.4703
   3        1.5896
   4        3.0526
   5        4.0456
   6        4.9478
   7       12.5283
   8       21.7188
   9       24.2257

 -0.4375000E+00  0.6250000E-01  0.6250000E-01  0.1171875E-01
   1       -1.2649
   2        1.3573
   3        1.5237
   4        3.7630
   5        4.5234
   6        6.0447
   7       10.1339
   8       21.3830
   9       24.2808

 -0.3125000E+00  0.6250000E-01  0.6250000E-01  0.1171875E-01
   1       -1.3184
   2        1.5257
   3        1.7027
   4        2.2875
   5        4.1754
   6        4.1865
   7       14.1281
   8       22.1102
   9       24.9178

 -0.1875000E+00  0.6250000E-01  0.6250000E-01  0.1171875E-01
   1       -2.1757
   2        1.1032
   3        1.8277
   4        1.8878
   5        3.0768
   6        3.5074
   7       19.2506
   8       23.2212
   9       25.9563

 -0.6250000E-01  0.6250000E-01  0.6250000E-01  0.1171875E-01
   1       -3.4356
   2        1.2447
   3        1.6862
   4        1.6930
   5        2.9420
   6        3.2512
   7       22.5187
   8       23.9720
   9       26.0114

  0.1875000E+00  0.1875000E+00  0.6250000E-01  0.1171875E-01
   1       -2.7214
   2        0.9007
   3        1.9897
   4        2.0185
   5        2.6436
   6        3.4448
   7       22.6299
   8       23.4263
   9       24.9337

  0.3125000E+00  0.1875000E+00  0.6250000E-01  0.2343750E-01
   1       -1.5386
   2        0.5929
   3        1.7658
   4        2.4148
   5        2.9944
   6        3.9663
   7       19.6178
   8       22.1892
   9       24.4828

  0.4375000E+00  0.1875000E+00  0.6250000E-01  0.2343750E-01
   1       -0.7347
   2        1.1538
   3        1.3641
   4        2.2503
   5        4.1196
   6        5.3769
   7       14.4391
   8       21.4745
   9       22.3767

 -0.4375000E+00  0.1875000E+00  0.6250000E-01  0.2343750E-01
   1       -0.6919
   2        0.9855
   3        2.0220
   4        2.4268
   5        4.4458
   6        8.0103
   7       10.1319
   8       20.8601
   9       21.6974

 -0.3125000E+00  0.1875000E+00  0.6250000E-01  0.2343750E-01
   1       -0.6342
   2        1.1283
   3        1.8412
   4        2.1521
   5        3.9171
   6        6.3298
   7       12.9357
   8       20.2566
   9       22.6750

 -0.1875000E+00  0.1875000E+00  0.6250000E-01  0.2343750E-01
   1       -1.0883
   2        0.7767
   3        1.5810
   4        2.3584
   5        2.8991
   6        4.6109
   7       17.8401
   8       20.8289
   9       24.4423

 -0.6250000E-01  0.1875000E+00  0.6250000E-01  0.2343750E-01
   1       -2.4100
   2        0.9432
   3        1.8833
   4        2.0167
   5        2.7622
   6        3.5492
   7       20.9604
   8       22.9386
   9       25.4080

  0.3125000E+00  0.3125000E+00  0.6250000E-01  0.1171875E-01
   1       -1.0127
   2        0.0512
   3        2.1794
   4        3.0508
   5        3.4720
   6        4.0014
   7       20.0009
   8       21.2597
   9       22.3293

  0.4375000E+00  0.3125000E+00  0.6250000E-01  0.2343750E-01
   1       -0.5553
   2       -0.1046
   3        2.1484
   4        3.4734
   5        4.1983
   6        5.5187
   7       16.4630
   8       19.0026
   9       19.9167

 -0.4375000E+00  0.3125000E+00  0.6250000E-01  0.2343750E-01
   1       -0.3509
   2        0.3881
   3        1.8858
   4        3.1006
   5        4.5340
   6        8.7972
   7       11.9139
   8       17.3106
   9       19.6621

 -0.3125000E+00  0.3125000E+00  0.6250000E-01  0.2343750E-01
   1        0.0650
   2        0.7843
   3        1.4062
   4        2.8213
   5        3.9757
   6        8.5897
   7       12.9969
   8       15.6453
   9       21.4428

 -0.1875000E+00  0.3125000E+00  0.6250000E-01  0.2343750E-01
   1       -0.0918
   2        0.9277
   3        1.1458
   4        2.5595
   5        3.3910
   6        6.3645
   7       14.9955
   8       18.0072
   9       23.0380

 -0.6250000E-01  0.3125000E+00  0.6250000E-01  0.2343750E-01
   1       -1.2300
   2        1.3414
   3        1.5874
   4        1.9552
   5        3.5217
   6        4.4543
   7       15.9575
   8       22.2890
   9       24.0610

  0.4375000E+00  0.4375000E+00  0.6250000E-01  0.1171875E-01
   1       -0.9343
   2       -0.5896
   3        3.9319
   4        4.1241
   5        4.5892
   6        5.9517
   7       15.4727
   8       17.6319
   9       18.0836

 -0.4375000E+00  0.4375000E+00  0.6250000E-01  0.2343750E-01
   1       -0.8250
   2       -0.4968
   3        3.4606
   4        4.0816
   5        4.7870
   6        8.7642
   7       12.7976
   8       16.0483
   9       17.4398

 -0.3125000E+00  0.4375000E+00  0.6250000E-01  0.2343750E-01
   1       -0.3890
   2        0.2425
   3        2.2005
   4        3.3819
   5        4.4844
   6       10.6182
   7       11.4042
   8       14.9331
   9       19.2187

 -0.1875000E+00  0.4375000E+00  0.6250000E-01  0.2343750E-01
   1       -0.2558
   2        0.7668
   3        1.9027
   4        2.4380
   5        4.2562
   6        8.9188
   7       10.6290
   8       18.3574
   9       21.5084

 -0.6250000E-01  0.4375000E+00  0.6250000E-01  0.2343750E-01
   1       -1.0494
   2        1.2592
   3        1.7204
   4        2.8962
   5        4.3651
   6        6.2229
   7       11.1736
   8       21.5706
   9       23.0261

 -0.4375000E+00 -0.4375000E+00  0.6250000E-01  0.1171875E-01
   1       -1.0631
   2       -0.7315
   3        4.3608
   4        4.4505
   5        4.8111
   6        7.5814
   7       13.2024
   8       16.7493
   9       17.3148

 -0.3125000E+00 -0.4375000E+00  0.6250000E-01  0.2343750E-01
   1       -0.6930
   2       -0.3609
   3        2.9003
   4        3.9335
   5        4.5574
   6        7.0644
   7       14.6466
   8       17.2024
   9       18.2007

 -0.1875000E+00 -0.4375000E+00  0.6250000E-01  0.2343750E-01
   1       -0.4224
   2        0.7089
   3        1.5322
   4        2.6668
   5        4.4652
   6        6.8755
   7       13.0417
   8       19.9155
   9       20.5667

 -0.3125000E+00 -0.3125000E+00  0.6250000E-01  0.1171875E-01
   1       -0.8011
   2       -0.3192
   3        2.9897
   4        3.6428
   5        4.3012
   6        4.4679
   7       18.0350
   8       19.4697
   9       19.5188

 -0.1875000E+00 -0.3125000E+00  0.6250000E-01  0.2343750E-01
   1       -0.7728
   2        0.2262
   3        1.6778
   4        2.9143
   5        3.6160
   6        4.5359
   7       18.1228
   8       20.6904
   9       22.3795

 -0.1875000E+00 -0.1875000E+00  0.6250000E-01  0.1171875E-01
   1       -1.7965
   2        0.4777
   3        2.0596
   4        2.4839
   5        2.7865
   6        3.7051
   7       21.5379
   8       23.2029
   9       23.8833

  0.1875000E+00  0.1875000E+00  0.1875000E+00  0.3906250E-02
   1       -2.7642
   2        1.2105
   3        1.7785
   4        1.7785
   5        3.1402
   6        3.1402
   7       20.7703
   8       23.1522
   9       27.3770

  0.3125000E+00  0.1875000E+00  0.1875000E+00  0.1171875E-01
   1       -1.8311
   2        0.9238
   3        1.8070
   4        2.1179
   5        2.6974
   6        3.9778
   7       19.3426
   8       22.0363
   9       25.6039

  0.4375000E+00  0.1875000E+00  0.1875000E+00  0.1171875E-01
   1       -0.5689
   2        0.9178
   3        1.4710
   4        2.3060
   5        2.9774
   6        5.4138
   7       16.3026
   8       19.4129
   9       24.1420

 -0.4375000E+00  0.1875000E+00  0.1875000E+00  0.1171875E-01
   1       -0.4797
   2        0.9928
   3        2.1347
   4        2.1357
   5        4.0014
   6        7.4454
   7       11.6824
   8       19.1833
   9       23.2349

 -0.3125000E+00  0.1875000E+00  0.1875000E+00  0.1171875E-01
   1       -0.6070
   2        0.9356
   3        1.9659
   4        2.2316
   5        4.5761
   6        7.4138
   7       11.3051
   8       20.3701
   9       22.2098

 -0.1875000E+00  0.1875000E+00  0.1875000E+00  0.1171875E-01
   1       -0.7790
   2        0.5992
   3        1.5266
   4        2.4747
   5        4.3050
   6        4.5340
   7       16.2137
   8       22.0985
   9       22.2971

  0.3125000E+00  0.3125000E+00  0.1875000E+00  0.1171875E-01
   1       -1.4288
   2        0.8765
   3        1.6701
   4        2.1188
   5        3.5238
   6        3.9242
   7       17.7528
   8       23.1741
   9       24.0075

  0.4375000E+00  0.3125000E+00  0.1875000E+00  0.2343750E-01
   1       -0.3959
   2        0.5715
   3        1.2409
   4        2.7742
   5        3.4481
   6        5.4297
   7       16.3938
   8       19.4136
   9       22.5657

 -0.4375000E+00  0.3125000E+00  0.1875000E+00  0.2343750E-01
   1        0.2838
   2        0.6568
   3        0.9698
   4        2.9474
   5        3.9304
   6        7.6198
   7       13.9035
   8       16.7280
   9       20.7655

 -0.3125000E+00  0.3125000E+00  0.1875000E+00  0.2343750E-01
   1        0.0346
   2        0.5361
   3        1.5184
   4        2.8368
   5        4.3964
   6        9.7842
   7       10.8243
   8       17.4973
   9       19.2989

 -0.1875000E+00  0.3125000E+00  0.1875000E+00  0.2343750E-01
   1       -0.1389
   2        0.3205
   3        1.3389
   4        3.2644
   5        4.0189
   6        6.6082
   7       15.0162
   8       17.9697
   9       20.2402

  0.4375000E+00  0.4375000E+00  0.1875000E+00  0.1171875E-01
   1       -0.5430
   2        0.2532
   3        1.8923
   4        2.9254
   5        4.5703
   6        5.9882
   7       14.6763
   8       19.8341
   9       20.4953

 -0.4375000E+00  0.4375000E+00  0.1875000E+00  0.2343750E-01
   1       -0.2644
   2        0.0724
   3        1.8795
   4        3.5675
   5        4.4721
   6        8.2556
   7       13.7382
   8       16.5257
   9       18.1802

 -0.3125000E+00  0.4375000E+00  0.1875000E+00  0.2343750E-01
   1        0.0251
   2        0.5520
   3        1.3641
   4        3.0949
   5        4.7750
   6       11.0588
   7       12.5112
   8       14.3167
   9       16.9925

 -0.1875000E+00  0.4375000E+00  0.1875000E+00  0.2343750E-01
   1        0.2205
   2        0.5434
   3        1.1199
   4        3.1298
   5        4.4337
   6        9.2770
   7       13.0406
   8       15.5947
   9       18.4151

 -0.4375000E+00 -0.4375000E+00  0.1875000E+00  0.1171875E-01
   1       -0.6975
   2       -0.2035
   3        3.0085
   4        3.7793
   5        4.6098
   6        9.6504
   7       12.0614
   8       15.2841
   9       18.7454

 -0.3125000E+00 -0.4375000E+00  0.1875000E+00  0.2343750E-01
   1       -0.4045
   2       -0.0493
   3        2.3502
   4        3.5696
   5        4.7777
   6       10.1555
   7       12.3853
   8       15.2458
   9       17.2035

 -0.3125000E+00 -0.3125000E+00  0.1875000E+00  0.1171875E-01
   1       -0.6049
   2       -0.0473
   3        2.5436
   4        3.4054
   5        4.6640
   6        7.7912
   7       13.2757
   8       17.1989
   9       19.3455

  0.3125000E+00  0.3125000E+00  0.3125000E+00  0.3906250E-02
   1       -1.5842
   2        1.6847
   3        1.6847
   4        1.9330
   5        3.7201
   6        3.7201
   7       15.7671
   8       22.4370
   9       26.8689

  0.4375000E+00  0.3125000E+00  0.3125000E+00  0.1171875E-01
   1       -0.9615
   2        1.3768
   3        1.8876
   4        1.8981
   5        3.5275
   6        5.2650
   7       14.3540
   8       21.2903
   9       23.5055

 -0.4375000E+00  0.3125000E+00  0.3125000E+00  0.1171875E-01
   1        0.0209
   2        0.9557
   3        1.3679
   4        2.5408
   5        3.5809
   6        7.3644
   7       13.9041
   8       16.6849
   9       24.1722

 -0.3125000E+00  0.3125000E+00  0.3125000E+00  0.1171875E-01
   1       -0.2382
   2        0.6228
   3        1.8522
   4        3.0677
   5        4.1700
   6        9.6712
   7       12.0345
   8       15.0441
   9       21.1812

  0.4375000E+00  0.4375000E+00  0.3125000E+00  0.1171875E-01
   1       -0.9727
   2        1.2589
   3        1.8921
   4        2.1490
   5        4.4944
   6        5.5378
   7       12.6300
   8       21.8895
   9       23.3454

 -0.4375000E+00  0.4375000E+00  0.3125000E+00  0.2343750E-01
   1       -0.2702
   2        0.7836
   3        1.6829
   4        2.4901
   5        4.2678
   6        7.8568
   7       11.7152
   8       19.2336
   9       20.7916

 -0.3125000E+00  0.4375000E+00  0.3125000E+00  0.2343750E-01
   1        0.0781
   2        0.5841
   3        1.3975
   4        3.0339
   5        4.4345
   6       10.1001
   7       12.2597
   8       14.9655
   9       18.8771

 -0.4375000E+00 -0.4375000E+00  0.3125000E+00  0.1171875E-01
   1       -0.3350
   2        0.6973
   3        1.8717
   4        2.6684
   5        4.4280
   6        9.6251
   7       10.2662
   8       17.7351
   9       21.5064

  0.4375000E+00  0.4375000E+00  0.4375000E+00  0.3906250E-02
   1       -1.3709
   2        1.4642
   3        1.4642
   4        4.4064
   5        4.4064
   6        4.5233
   7       11.0740
   8       21.3958
   9       25.0572

 -0.4375000E+00  0.4375000E+00  0.4375000E+00  0.1171875E-01
   1       -0.9554
   2        1.1736
   3        1.7589
   4        2.9699
   5        4.3698
   6        7.2249
   7       10.1631
   8       21.1775
   9       22.9470
