       N       E                     dE             d eps       ncg     rms          rms(c)
DAV:   1     0.429682408331E+02    0.42968E+02   -0.48375E+03  1296   0.828E+02

DAV:   2    -0.273423515491E+01   -0.45702E+02   -0.41598E+02  1100   0.207E+02

DAV:   3    -0.330420184695E+01   -0.56997E+00   -0.56961E+00  1306   0.281E+01

DAV:   4    -0.330587492345E+01   -0.16731E-02   -0.16730E-02  1215   0.139E+00

DAV:   5    -0.330588648950E+01   -0.11566E-04   -0.11566E-04  1239   0.111E-01    0.293E+00
RMM:   6    -0.308137796236E+01    0.22451E+00   -0.35899E-01  1087   0.835E+00    0.873E-01
RMM:   7    -0.305634114979E+01    0.25037E-01   -0.36951E-02  1135   0.226E+00    0.271E-01
RMM:   8    -0.305208402882E+01    0.42571E-02   -0.13601E-03  1157   0.663E-01    0.118E-02
RMM:   9    -0.305209555313E+01   -0.11524E-04   -0.17454E-05   683   0.607E-02

   1 F= -.30520956E+01 E0= -.30516339E+01  d E =-.923270E-03

