 vasp.4.6.26 15Dec04 complex 
 executed on             LinuxPgi date 2009.11.30  08:13:24
 serial version


--------------------------------------------------------------------------------------------------------


 INCAR:
 POTCAR:   PAW_GGA Au 18Jul2000                   
 POTCAR:   PAW_GGA Au 18Jul2000                   
  local pseudopotential read in
  partial core-charges read in
  atomic valenz-charges read in
  non local Contribution for L=                        2  read in
    real space projection operators read in
  non local Contribution for L=                        2  read in
    real space projection operators read in
  non local Contribution for L=                        0  read in
    real space projection operators read in
  non local Contribution for L=                        0  read in
    real space projection operators read in
  non local Contribution for L=                        1  read in
    real space projection operators read in
  non local Contribution for L=                        1  read in
    real space projection operators read in
    PAW grid and wavefunctions read in

   number of l-projection  operators is LMAX  =                        6
   number of lm-projection operators is LMMAX =                       18

 PAW_GGA Au 18Jul2000                   :
 energy of atom  1       EATOM= -927.0928
 kinetic energy error for atom=    0.0152 (will be added to EATOM!!)

 EXHCAR: internal setup
 exchange correlation table for  LEXCH =        7
   RHO(1)=    0.500       N(1)  =     2000
   RHO(2)=  100.500       N(2)  =     4000

 POSCAR: Pure FCC metal                          
  positions in direct lattice
  No initial velocities read in



--------------------------------------------------------------------------------------------------------


 ion  position               nearest neighbor table
   1  0.000  0.000  0.000-

  LATTYP: Found a face centered cubic cell.
 ALAT       =     4.0000000000
  
  Lattice vectors:
  
 A1 = (   0.0000000000,   2.0000000000,   2.0000000000)
 A2 = (   2.0000000000,   0.0000000000,   2.0000000000)
 A3 = (   2.0000000000,   2.0000000000,   0.0000000000)
 Subroutine PRICEL returns:
 Original cell was already a primitive cell.
 

Analysis of symmetry for initial positions (statically):

 Routine SETGRP: Setting up the symmetry group for a 
 face centered cubic supercell.


 Subroutine GETGRP returns: Found 48 space group operations
 (whereof 48 operations were pure point group operations)
 out of a pool of 48 trial point group operations.


The static configuration has the point symmetry O_h .

Analysis of symmetry for dynamics (positions and initial velocities):

 Subroutine DYNSYM returns: Found 48 space group operations
 (whereof 48 operations were pure point group operations)
 out of a pool of 48 trial space group operations
 (whereof 48 operations were pure point group operations)
 and found also     1 'primitive' translations


The dynamic configuration has the point symmetry O_h .


 KPOINTS: 8x8x8 title card                        

Automatic generation of k-mesh.
 
 Subroutine IBZKPT returns following result:
 ===========================================
 
 Found     60 irreducible k-points:
 
 Following reciprocal coordinates:
            Coordinates               Weight
  0.062500  0.062500  0.062500     96.000000
  0.187500  0.062500  0.062500    288.000000
  0.312500  0.062500  0.062500    288.000000
  0.437500  0.062500  0.062500    288.000000
 -0.437500  0.062500  0.062500    288.000000
 -0.312500  0.062500  0.062500    288.000000
 -0.187500  0.062500  0.062500    288.000000
 -0.062500  0.062500  0.062500    288.000000
  0.187500  0.187500  0.062500    288.000000
  0.312500  0.187500  0.062500    576.000000
  0.437500  0.187500  0.062500    576.000000
 -0.437500  0.187500  0.062500    576.000000
 -0.312500  0.187500  0.062500    576.000000
 -0.187500  0.187500  0.062500    576.000000
 -0.062500  0.187500  0.062500    576.000000
  0.312500  0.312500  0.062500    288.000000
  0.437500  0.312500  0.062500    576.000000
 -0.437500  0.312500  0.062500    576.000000
 -0.312500  0.312500  0.062500    576.000000
 -0.187500  0.312500  0.062500    576.000000
 -0.062500  0.312500  0.062500    576.000000
  0.437500  0.437500  0.062500    288.000000
 -0.437500  0.437500  0.062500    576.000000
 -0.312500  0.437500  0.062500    576.000000
 -0.187500  0.437500  0.062500    576.000000
 -0.062500  0.437500  0.062500    576.000000
 -0.437500 -0.437500  0.062500    288.000000
 -0.312500 -0.437500  0.062500    576.000000
 -0.187500 -0.437500  0.062500    576.000000
 -0.312500 -0.312500  0.062500    288.000000
 -0.187500 -0.312500  0.062500    576.000000
 -0.187500 -0.187500  0.062500    288.000000
  0.187500  0.187500  0.187500     96.000000
  0.312500  0.187500  0.187500    288.000000
  0.437500  0.187500  0.187500    288.000000
 -0.437500  0.187500  0.187500    288.000000
 -0.312500  0.187500  0.187500    288.000000
 -0.187500  0.187500  0.187500    288.000000
  0.312500  0.312500  0.187500    288.000000
  0.437500  0.312500  0.187500    576.000000
 -0.437500  0.312500  0.187500    576.000000
 -0.312500  0.312500  0.187500    576.000000
 -0.187500  0.312500  0.187500    576.000000
  0.437500  0.437500  0.187500    288.000000
 -0.437500  0.437500  0.187500    576.000000
 -0.312500  0.437500  0.187500    576.000000
 -0.187500  0.437500  0.187500    576.000000
 -0.437500 -0.437500  0.187500    288.000000
 -0.312500 -0.437500  0.187500    576.000000
 -0.312500 -0.312500  0.187500    288.000000
  0.312500  0.312500  0.312500     96.000000
  0.437500  0.312500  0.312500    288.000000
 -0.437500  0.312500  0.312500    288.000000
 -0.312500  0.312500  0.312500    288.000000
  0.437500  0.437500  0.312500    288.000000
 -0.437500  0.437500  0.312500    576.000000
 -0.312500  0.437500  0.312500    576.000000
 -0.437500 -0.437500  0.312500    288.000000
  0.437500  0.437500  0.437500     96.000000
 -0.437500  0.437500  0.437500    288.000000
 
 Following cartesian coordinates:
            Coordinates               Weight
  0.062500  0.062500  0.062500     96.000000
 -0.062500  0.187500  0.187500    288.000000
 -0.187500  0.312500  0.312500    288.000000
 -0.312500  0.437500  0.437500    288.000000
  0.562500 -0.437500 -0.437500    288.000000
  0.437500 -0.312500 -0.312500    288.000000
  0.312500 -0.187500 -0.187500    288.000000
  0.187500 -0.062500 -0.062500    288.000000
  0.062500  0.062500  0.312500    288.000000
 -0.062500  0.187500  0.437500    576.000000
 -0.187500  0.312500  0.562500    576.000000
  0.687500 -0.562500 -0.312500    576.000000
  0.562500 -0.437500 -0.187500    576.000000
  0.437500 -0.312500 -0.062500    576.000000
  0.312500 -0.187500  0.062500    576.000000
  0.062500  0.062500  0.562500    288.000000
 -0.062500  0.187500  0.687500    576.000000
  0.812500 -0.687500 -0.187500    576.000000
  0.687500 -0.562500 -0.062500    576.000000
  0.562500 -0.437500  0.062500    576.000000
  0.437500 -0.312500  0.187500    576.000000
  0.062500  0.062500  0.812500    288.000000
  0.937500 -0.812500 -0.062500    576.000000
  0.812500 -0.687500  0.062500    576.000000
  0.687500 -0.562500  0.187500    576.000000
  0.562500 -0.437500  0.312500    576.000000
  0.062500  0.062500 -0.937500    288.000000
 -0.062500  0.187500 -0.812500    576.000000
 -0.187500  0.312500 -0.687500    576.000000
  0.062500  0.062500 -0.687500    288.000000
 -0.062500  0.187500 -0.562500    576.000000
  0.062500  0.062500 -0.437500    288.000000
  0.187500  0.187500  0.187500     96.000000
  0.062500  0.312500  0.312500    288.000000
 -0.062500  0.437500  0.437500    288.000000
  0.812500 -0.437500 -0.437500    288.000000
  0.687500 -0.312500 -0.312500    288.000000
  0.562500 -0.187500 -0.187500    288.000000
  0.187500  0.187500  0.437500    288.000000
  0.062500  0.312500  0.562500    576.000000
  0.937500 -0.562500 -0.312500    576.000000
  0.812500 -0.437500 -0.187500    576.000000
  0.687500 -0.312500 -0.062500    576.000000
  0.187500  0.187500  0.687500    288.000000
  1.062500 -0.687500 -0.187500    576.000000
  0.937500 -0.562500 -0.062500    576.000000
  0.812500 -0.437500  0.062500    576.000000
  0.187500  0.187500 -1.062500    288.000000
  0.062500  0.312500 -0.937500    576.000000
  0.187500  0.187500 -0.812500    288.000000
  0.312500  0.312500  0.312500     96.000000
  0.187500  0.437500  0.437500    288.000000
  1.062500 -0.437500 -0.437500    288.000000
  0.937500 -0.312500 -0.312500    288.000000
  0.312500  0.312500  0.562500    288.000000
  1.187500 -0.562500 -0.312500    576.000000
  1.062500 -0.437500 -0.187500    576.000000
  0.312500  0.312500 -1.187500    288.000000
  0.437500  0.437500  0.437500     96.000000
  1.312500 -0.437500 -0.437500    288.000000
 


--------------------------------------------------------------------------------------------------------




 Dimension of arrays:
   k-Points           NKPTS =     60   number of bands    NBANDS=      9
   number of dos      NEDOS =    301   number of ions     NIONS =      1
   non local maximal  LDIM  =      6   non local SUM 2l+1 LMDIM =     18
   total plane-waves  NPLWV =   2744
   max r-space proj   IRMAX =      1   max aug-charges    IRDMAX=  10686
   dimension x,y,z NGX =    14 NGY =   14 NGZ =   14
   dimension x,y,z NGXF=    28 NGYF=   28 NGZF=   28
   support grid    NGXF=    28 NGYF=   28 NGZF=   28
   ions per type =               1
 NGX,Y,Z   is equivalent  to a cutoff of   8.23,  8.23,  8.23 a.u.
 NGXF,Y,Z  is equivalent  to a cutoff of  16.46, 16.46, 16.46 a.u.


 I would recommend the setting:
   dimension x,y,z NGX =    13 NGY =   13 NGZ =   13
 SYSTEM =  Au, FCC                                 
 POSCAR =  Pure FCC metal                          

 Startparameter for this run:
   NWRITE =      1    write-flag & timer
   PREC   = normal    medium, high low
   ISTART =      0    job   : 0-new  1-cont  2-samecut
   ICHARG =      2    charge: 1-file 2-atom 10-const
   ISPIN  =      1    spin polarized calculation?
   LNONCOLLINEAR =      F non collinear calculations
   LSORBIT =      F    spin-orbit coupling
   INIWAV =      1    electr: 0-lowe 1-rand  2-diag
   LASPH  =      F    aspherical Exc in radial PAW
   METAGGA=      F    non-selfconsistent MetaGGA calc.

 Electronic Relaxation 1
   ENCUT  =  350.0 eV  25.72 Ry    5.07 a.u.   4.31  4.31  4.31*2*pi/ulx,y,z
   ENINI  =  350.0     initial cutoff
   ENAUG  =  356.7 eV  augmentation charge cutoff
   NELM   =     60;   NELMIN=  2; NELMDL= -5     # of ELM steps 
   EDIFF  = 0.1E-03   stopping-criterion for ELM
   LREAL  =      F    real-space projection
   LCOMPAT=      F    compatible to vasp.4.4
   LREAL_COMPAT= F    compatible to vasp.4.5.1-3
   GGA_COMPAT  = T    GGA compatible to vasp.4.4-vasp.4.6
   LMAXPAW     = -100 max onsite density
   LMAXMIX     =    2 max onsite mixed and CHGCAR
   VOSKOWN=      0    Vosko Wilk Nusair interpolation
   ROPT   =    0.00000
 Ionic relaxation
   EDIFFG = 0.1E-02   stopping-criterion for IOM
   NSW    =      0    number of steps for IOM
   NBLOCK =      1;   KBLOCK =      1    inner block; outer block 
   IBRION =     -1    ionic relax: 0-MD 1-quasi-New 2-CG
   NFREE  =      0    steps in history (QN), initial steepest desc. (CG)
   ISIF   =      2    stress and relaxation
   IWAVPR =      0    prediction:  0-non 1-charg 2-wave 3-comb
   ISYM   =      2    0-nonsym 1-usesym 2-fastsym
   LCORR  =      T    Harris-Foulkes like correction to forces

   POTIM  =   0.50    time-step for ionic-motion
   TEIN   =    0.0    initial temperature
   TEBEG  =    0.0;   TEEND  =   0.0 temperature during run
   SMASS  =  -3.00    Nose mass-parameter (am)
   estimated Nose-frequenzy (Omega)   =  0.10E-29 period in steps =****** mass=  -0.183E-27a.u.
   NPACO  =    256;   APACO  = 16.0  distance and # of slots for P.C.
   PSTRESS=    0.0 pullay stress

  Mass of Ions in am
   POMASS = 196.97
  Ionic Valenz
   ZVAL   =  11.00
  Atomic Wigner-Seitz radii
   RWIGS  =  -1.00
   NELECT =      11.0000    total number of electrons
   NUPDOWN=      -1.0000    fix difference up-down

 DOS related values:
   EMIN   =  10.00;   EMAX   =-10.00  energy-range for DOS
   ISMEAR =     0;   SIGMA  =   0.10  broadening in eV -4-tet -1-fermi 0-gaus

 Electronic relaxation 2 (details)
   IALGO  =     68    algorithm
   LDIAG  =      T    sub-space diagonalisation
   IMIX   =      4    mixing-type and parameters
     AMIX     =   0.40;   BMIX     =  1.00
     AMIX_MAG =   1.60;   BMIX_MAG =  1.00
     AMIN     =   0.10
     WC   =   100.;   INIMIX=   1;  MIXPRE=   1

 Intra band minimization:
   WEIMIN = 0.0000     energy-eigenvalue tresh-hold
   EBREAK =  0.28E-05  absolut break condition
   DEPER  =   0.30     relativ break condition  

   TIME   =   0.10     timestep for ELM

  volume/ion in A,a.u.               =      16.00       107.97
  Fermi-wavevector in a.u.,eV,Ry     =   1.444882 28.404667  2.087684

 Second variation
   LSECVAR=     F    do a second variation

 Write flags
   LWAVE  =      F    write WAVECAR
   LCHARG =      T    write CHGCAR
   LVTOT  =      F    write LOCPOT, local potential
   LELF   =      F    write electronic localiz. function (ELF)
   LORBIT =     11    0 simple, 1 ext, 2 COOP (PROOUT)


 Dipole corrections
   IDIPOL =      0    1-x, 2-y, 3-z
   LDIPOL =      F    correct potential



--------------------------------------------------------------------------------------------------------


 Static calculation
 charge density will be updated during run
 non-spin polarized calculation
 RMM-DIIS sequential band-by-band and
  variant of blocked Davidson during initial phase
 performe sub-space diagonalisation
    before iterative eigenvector-optimisation
 modified Broyden-mixing scheme, WC =      100.0
 initial mixing is a Kerker type mixing with AMIX =  0.4000 and BMIX =      1.0000
 Hartree-type preconditioning will be used
 using additional bands                         3
 reciprocal scheme for non local part
 use partial core corrections
 calculate Harris-corrections to forces 
   (improved forces if not selfconsistent)
 use gradient corrections 
 use of overlap-Matrix (Vanderbilt PP)
 Gauss-broadening in eV      SIGMA  =   0.10


--------------------------------------------------------------------------------------------------------


  energy-cutoff  :      350.00
  volume of cell :       16.00
      direct lattice vectors                 reciprocal lattice vectors
     0.000000000  2.000000000  2.000000000    -0.250000000  0.250000000  0.250000000
     2.000000000  0.000000000  2.000000000     0.250000000 -0.250000000  0.250000000
     2.000000000  2.000000000  0.000000000     0.250000000  0.250000000 -0.250000000

  length of vectors
     2.828427125  2.828427125  2.828427125     0.433012702  0.433012702  0.433012702



 k-points in units of 2pi/SCALE and weight: 8x8x8 title card                        
   0.06250000  0.06250000  0.06250000       0.004
  -0.06250000  0.18750000  0.18750000       0.012
  -0.18750000  0.31250000  0.31250000       0.012
  -0.31250000  0.43750000  0.43750000       0.012
   0.56250000 -0.43750000 -0.43750000       0.012
   0.43750000 -0.31250000 -0.31250000       0.012
   0.31250000 -0.18750000 -0.18750000       0.012
   0.18750000 -0.06250000 -0.06250000       0.012
   0.06250000  0.06250000  0.31250000       0.012
  -0.06250000  0.18750000  0.43750000       0.023
  -0.18750000  0.31250000  0.56250000       0.023
   0.68750000 -0.56250000 -0.31250000       0.023
   0.56250000 -0.43750000 -0.18750000       0.023
   0.43750000 -0.31250000 -0.06250000       0.023
   0.31250000 -0.18750000  0.06250000       0.023
   0.06250000  0.06250000  0.56250000       0.012
  -0.06250000  0.18750000  0.68750000       0.023
   0.81250000 -0.68750000 -0.18750000       0.023
   0.68750000 -0.56250000 -0.06250000       0.023
   0.56250000 -0.43750000  0.06250000       0.023
   0.43750000 -0.31250000  0.18750000       0.023
   0.06250000  0.06250000  0.81250000       0.012
   0.93750000 -0.81250000 -0.06250000       0.023
   0.81250000 -0.68750000  0.06250000       0.023
   0.68750000 -0.56250000  0.18750000       0.023
   0.56250000 -0.43750000  0.31250000       0.023
   0.06250000  0.06250000 -0.93750000       0.012
  -0.06250000  0.18750000 -0.81250000       0.023
  -0.18750000  0.31250000 -0.68750000       0.023
   0.06250000  0.06250000 -0.68750000       0.012
  -0.06250000  0.18750000 -0.56250000       0.023
   0.06250000  0.06250000 -0.43750000       0.012
   0.18750000  0.18750000  0.18750000       0.004
   0.06250000  0.31250000  0.31250000       0.012
  -0.06250000  0.43750000  0.43750000       0.012
   0.81250000 -0.43750000 -0.43750000       0.012
   0.68750000 -0.31250000 -0.31250000       0.012
   0.56250000 -0.18750000 -0.18750000       0.012
   0.18750000  0.18750000  0.43750000       0.012
   0.06250000  0.31250000  0.56250000       0.023
   0.93750000 -0.56250000 -0.31250000       0.023
   0.81250000 -0.43750000 -0.18750000       0.023
   0.68750000 -0.31250000 -0.06250000       0.023
   0.18750000  0.18750000  0.68750000       0.012
   1.06250000 -0.68750000 -0.18750000       0.023
   0.93750000 -0.56250000 -0.06250000       0.023
   0.81250000 -0.43750000  0.06250000       0.023
   0.18750000  0.18750000 -1.06250000       0.012
   0.06250000  0.31250000 -0.93750000       0.023
   0.18750000  0.18750000 -0.81250000       0.012
   0.31250000  0.31250000  0.31250000       0.004
   0.18750000  0.43750000  0.43750000       0.012
   1.06250000 -0.43750000 -0.43750000       0.012
   0.93750000 -0.31250000 -0.31250000       0.012
   0.31250000  0.31250000  0.56250000       0.012
   1.18750000 -0.56250000 -0.31250000       0.023
   1.06250000 -0.43750000 -0.18750000       0.023
   0.31250000  0.31250000 -1.18750000       0.012
   0.43750000  0.43750000  0.43750000       0.004
   1.31250000 -0.43750000 -0.43750000       0.012

 k-points in reciprocal lattice and weights: 8x8x8 title card                        
   0.06250000  0.06250000  0.06250000       0.004
   0.18750000  0.06250000  0.06250000       0.012
   0.31250000  0.06250000  0.06250000       0.012
   0.43750000  0.06250000  0.06250000       0.012
  -0.43750000  0.06250000  0.06250000       0.012
  -0.31250000  0.06250000  0.06250000       0.012
  -0.18750000  0.06250000  0.06250000       0.012
  -0.06250000  0.06250000  0.06250000       0.012
   0.18750000  0.18750000  0.06250000       0.012
   0.31250000  0.18750000  0.06250000       0.023
   0.43750000  0.18750000  0.06250000       0.023
  -0.43750000  0.18750000  0.06250000       0.023
  -0.31250000  0.18750000  0.06250000       0.023
  -0.18750000  0.18750000  0.06250000       0.023
  -0.06250000  0.18750000  0.06250000       0.023
   0.31250000  0.31250000  0.06250000       0.012
   0.43750000  0.31250000  0.06250000       0.023
  -0.43750000  0.31250000  0.06250000       0.023
  -0.31250000  0.31250000  0.06250000       0.023
  -0.18750000  0.31250000  0.06250000       0.023
  -0.06250000  0.31250000  0.06250000       0.023
   0.43750000  0.43750000  0.06250000       0.012
  -0.43750000  0.43750000  0.06250000       0.023
  -0.31250000  0.43750000  0.06250000       0.023
  -0.18750000  0.43750000  0.06250000       0.023
  -0.06250000  0.43750000  0.06250000       0.023
  -0.43750000 -0.43750000  0.06250000       0.012
  -0.31250000 -0.43750000  0.06250000       0.023
  -0.18750000 -0.43750000  0.06250000       0.023
  -0.31250000 -0.31250000  0.06250000       0.012
  -0.18750000 -0.31250000  0.06250000       0.023
  -0.18750000 -0.18750000  0.06250000       0.012
   0.18750000  0.18750000  0.18750000       0.004
   0.31250000  0.18750000  0.18750000       0.012
   0.43750000  0.18750000  0.18750000       0.012
  -0.43750000  0.18750000  0.18750000       0.012
  -0.31250000  0.18750000  0.18750000       0.012
  -0.18750000  0.18750000  0.18750000       0.012
   0.31250000  0.31250000  0.18750000       0.012
   0.43750000  0.31250000  0.18750000       0.023
  -0.43750000  0.31250000  0.18750000       0.023
  -0.31250000  0.31250000  0.18750000       0.023
  -0.18750000  0.31250000  0.18750000       0.023
   0.43750000  0.43750000  0.18750000       0.012
  -0.43750000  0.43750000  0.18750000       0.023
  -0.31250000  0.43750000  0.18750000       0.023
  -0.18750000  0.43750000  0.18750000       0.023
  -0.43750000 -0.43750000  0.18750000       0.012
  -0.31250000 -0.43750000  0.18750000       0.023
  -0.31250000 -0.31250000  0.18750000       0.012
   0.31250000  0.31250000  0.31250000       0.004
   0.43750000  0.31250000  0.31250000       0.012
  -0.43750000  0.31250000  0.31250000       0.012
  -0.31250000  0.31250000  0.31250000       0.012
   0.43750000  0.43750000  0.31250000       0.012
  -0.43750000  0.43750000  0.31250000       0.023
  -0.31250000  0.43750000  0.31250000       0.023
  -0.43750000 -0.43750000  0.31250000       0.012
   0.43750000  0.43750000  0.43750000       0.004
  -0.43750000  0.43750000  0.43750000       0.012

 position of ions in fractional coordinates (direct lattice) 
   0.00000000  0.00000000  0.00000000

 position of ions in cartesian coordinates  (Angst):
   0.00000000  0.00000000  0.00000000



--------------------------------------------------------------------------------------------------------


 k-point  1 :  0.06250.06250.0625  plane waves:    256
 k-point  2 :  0.18750.06250.0625  plane waves:    245
 k-point  3 :  0.31250.06250.0625  plane waves:    244
 k-point  4 :  0.43750.06250.0625  plane waves:    243
 k-point  5 :  -.43750.06250.0625  plane waves:    238
 k-point  6 :  -.31250.06250.0625  plane waves:    237
 k-point  7 :  -.18750.06250.0625  plane waves:    240
 k-point  8 :  -.06250.06250.0625  plane waves:    249
 k-point  9 :  0.18750.18750.0625  plane waves:    239
 k-point 10 :  0.31250.18750.0625  plane waves:    236
 k-point 11 :  0.43750.18750.0625  plane waves:    238
 k-point 12 :  -.43750.18750.0625  plane waves:    241
 k-point 13 :  -.31250.18750.0625  plane waves:    240
 k-point 14 :  -.18750.18750.0625  plane waves:    237
 k-point 15 :  -.06250.18750.0625  plane waves:    239
 k-point 16 :  0.31250.31250.0625  plane waves:    232
 k-point 17 :  0.43750.31250.0625  plane waves:    233
 k-point 18 :  -.43750.31250.0625  plane waves:    237
 k-point 19 :  -.31250.31250.0625  plane waves:    236
 k-point 20 :  -.18750.31250.0625  plane waves:    236
 k-point 21 :  -.06250.31250.0625  plane waves:    240
 k-point 22 :  0.43750.43750.0625  plane waves:    234
 k-point 23 :  -.43750.43750.0625  plane waves:    234
 k-point 24 :  -.31250.43750.0625  plane waves:    233
 k-point 25 :  -.18750.43750.0625  plane waves:    241
 k-point 26 :  -.06250.43750.0625  plane waves:    242
 k-point 27 :  -.4375-.43750.0625  plane waves:    229
 k-point 28 :  -.3125-.43750.0625  plane waves:    236
 k-point 29 :  -.1875-.43750.0625  plane waves:    239
 k-point 30 :  -.3125-.31250.0625  plane waves:    237
 k-point 31 :  -.1875-.31250.0625  plane waves:    236
 k-point 32 :  -.1875-.18750.0625  plane waves:    237
 k-point 33 :  0.18750.18750.1875  plane waves:    244
 k-point 34 :  0.31250.18750.1875  plane waves:    241
 k-point 35 :  0.43750.18750.1875  plane waves:    240
 k-point 36 :  -.43750.18750.1875  plane waves:    238
 k-point 37 :  -.31250.18750.1875  plane waves:    239
 k-point 38 :  -.18750.18750.1875  plane waves:    233
 k-point 39 :  0.31250.31250.1875  plane waves:    233
 k-point 40 :  0.43750.31250.1875  plane waves:    238
 k-point 41 :  -.43750.31250.1875  plane waves:    238
 k-point 42 :  -.31250.31250.1875  plane waves:    237
 k-point 43 :  -.18750.31250.1875  plane waves:    238
 k-point 44 :  0.43750.43750.1875  plane waves:    237
 k-point 45 :  -.43750.43750.1875  plane waves:    238
 k-point 46 :  -.31250.43750.1875  plane waves:    238
 k-point 47 :  -.18750.43750.1875  plane waves:    241
 k-point 48 :  -.4375-.43750.1875  plane waves:    233
 k-point 49 :  -.3125-.43750.1875  plane waves:    237
 k-point 50 :  -.3125-.31250.1875  plane waves:    236
 k-point 51 :  0.31250.31250.3125  plane waves:    238
 k-point 52 :  0.43750.31250.3125  plane waves:    242
 k-point 53 :  -.43750.31250.3125  plane waves:    236
 k-point 54 :  -.31250.31250.3125  plane waves:    235
 k-point 55 :  0.43750.43750.3125  plane waves:    235
 k-point 56 :  -.43750.43750.3125  plane waves:    238
 k-point 57 :  -.31250.43750.3125  plane waves:    237
 k-point 58 :  -.4375-.43750.3125  plane waves:    239
 k-point 59 :  0.43750.43750.4375  plane waves:    241
 k-point 60 :  -.43750.43750.4375  plane waves:    244

 maximum number of plane-waves:    256
 maximal index in each direction: 
   IXMAX=  4   IYMAX=  4   IZMAX=  4
   IXMIN= -4   IYMIN= -4   IZMIN= -4

 WARNING: wrap around error must be expected set NGX to  18
 WARNING: wrap around error must be expected set NGY to  18
 WARNING: wrap around error must be expected set NGZ to  18
 For storing wavefunctions    2.06 MBYTES are necessary
 For predicting wavefunctions    0.29 MBYTES are necessary
Broyden mixing: mesh for mixing (old mesh)
   NGX =  9   NGY =  9   NGZ =  9
  (NGX  = 28   NGY  = 28   NGZ  = 28)
 gives a total of    729 points
 initial charge density was supplied:
 charge density of overlapping atoms calculated
 number of electron   11.0000000 magnetization 
 keeping initial charge density in first step


--------------------------------------------------------------------------------------------------------


 Maximum index for augmentation-charges                     10149 (set IRDMAX)


--------------------------------------------------------------------------------------------------------


 First call to EWALD:  gamma=   0.703
 Maximum number of real-space cells 3x 3x 3
 Maximum number of reciprocal cells 3x 3x 3



----------------------------------------- Iteration    1(   1)  ---------------------------------------


      LOOP:  VPU time    1.34: CPU time    1.25

 eigenvalue-minimisations  :  1296
 total energy-change (2. order) : 0.4296824E+02  (-0.4837458E+03)
 number of electron   11.0000000 magnetization 
 augmentation part    11.0000000 magnetization 

 Free energy of the ion-electron system (eV)
  ---------------------------------------------------
  alpha Z        PSCENC =       116.80471688
  Ewald energy   TEWEN  =      -998.56820046
  -1/2 Hartree   DENC   =      -115.76942776
  -V(xc)+E(xc)   XCENC  =        15.43489851
  PAW double counting   =       747.65313744     -724.56448596
  entropy T*S    EENTRO =        -0.00228131
  eigenvalues    EBANDS =        74.90226906
  atomic energy  EATOM  =       927.07761444
  ---------------------------------------------------
  free energy    TOTEN  =        42.96824083 eV

  energy without entropy =       42.97052214  energy(sigma->0) =       42.96938149


--------------------------------------------------------------------------------------------------------




----------------------------------------- Iteration    1(   2)  ---------------------------------------


      LOOP:  VPU time    1.11: CPU time    1.01

 eigenvalue-minimisations  :  1100
 total energy-change (2. order) :-0.4570248E+02  (-0.4159822E+02)
 number of electron   11.0000000 magnetization 
 augmentation part    11.0000000 magnetization 

 Free energy of the ion-electron system (eV)
  ---------------------------------------------------
  alpha Z        PSCENC =       116.80471688
  Ewald energy   TEWEN  =      -998.56820046
  -1/2 Hartree   DENC   =      -115.76942776
  -V(xc)+E(xc)   XCENC  =        15.43489851
  PAW double counting   =       747.65313744     -724.56448596
  entropy T*S    EENTRO =        -0.00125700
  eigenvalues    EBANDS =        29.19876877
  atomic energy  EATOM  =       927.07761444
  ---------------------------------------------------
  free energy    TOTEN  =        -2.73423515 eV

  energy without entropy =       -2.73297815  energy(sigma->0) =       -2.73360665


--------------------------------------------------------------------------------------------------------




----------------------------------------- Iteration    1(   3)  ---------------------------------------


      LOOP:  VPU time    1.27: CPU time    1.18

 eigenvalue-minimisations  :  1306
 total energy-change (2. order) :-0.5699667E+00  (-0.5696104E+00)
 number of electron   11.0000000 magnetization 
 augmentation part    11.0000000 magnetization 

 Free energy of the ion-electron system (eV)
  ---------------------------------------------------
  alpha Z        PSCENC =       116.80471688
  Ewald energy   TEWEN  =      -998.56820046
  -1/2 Hartree   DENC   =      -115.76942776
  -V(xc)+E(xc)   XCENC  =        15.43489851
  PAW double counting   =       747.65313744     -724.56448596
  entropy T*S    EENTRO =        -0.00124915
  eigenvalues    EBANDS =        28.62879422
  atomic energy  EATOM  =       927.07761444
  ---------------------------------------------------
  free energy    TOTEN  =        -3.30420185 eV

  energy without entropy =       -3.30295270  energy(sigma->0) =       -3.30357727


--------------------------------------------------------------------------------------------------------




----------------------------------------- Iteration    1(   4)  ---------------------------------------


      LOOP:  VPU time    1.17: CPU time    1.10

 eigenvalue-minimisations  :  1215
 total energy-change (2. order) :-0.1673076E-02  (-0.1672998E-02)
 number of electron   11.0000000 magnetization 
 augmentation part    11.0000000 magnetization 

 Free energy of the ion-electron system (eV)
  ---------------------------------------------------
  alpha Z        PSCENC =       116.80471688
  Ewald energy   TEWEN  =      -998.56820046
  -1/2 Hartree   DENC   =      -115.76942776
  -V(xc)+E(xc)   XCENC  =        15.43489851
  PAW double counting   =       747.65313744     -724.56448596
  entropy T*S    EENTRO =        -0.00124744
  eigenvalues    EBANDS =        28.62711944
  atomic energy  EATOM  =       927.07761444
  ---------------------------------------------------
  free energy    TOTEN  =        -3.30587492 eV

  energy without entropy =       -3.30462748  energy(sigma->0) =       -3.30525120


--------------------------------------------------------------------------------------------------------




----------------------------------------- Iteration    1(   5)  ---------------------------------------


      LOOP:  VPU time    1.29: CPU time    1.17

 eigenvalue-minimisations  :  1239
 total energy-change (2. order) :-0.1156605E-04  (-0.1156560E-04)
 number of electron   10.9999982 magnetization 
 augmentation part     3.8652364 magnetization 

 Broyden mixing:
  rms(total) = 0.29261E+00    rms(broyden)= 0.29260E+00
  rms(prec ) = 0.12139E+01
  weight for this iteration     100.00

 Free energy of the ion-electron system (eV)
  ---------------------------------------------------
  alpha Z        PSCENC =       116.80471688
  Ewald energy   TEWEN  =      -998.56820046
  -1/2 Hartree   DENC   =      -115.76942776
  -V(xc)+E(xc)   XCENC  =        15.43489851
  PAW double counting   =       747.65313744     -724.56448596
  entropy T*S    EENTRO =        -0.00124742
  eigenvalues    EBANDS =        28.62710785
  atomic energy  EATOM  =       927.07761444
  ---------------------------------------------------
  free energy    TOTEN  =        -3.30588649 eV

  energy without entropy =       -3.30463907  energy(sigma->0) =       -3.30526278


--------------------------------------------------------------------------------------------------------




----------------------------------------- Iteration    1(   6)  ---------------------------------------


      LOOP:  VPU time    1.12: CPU time    1.09

 eigenvalue-minimisations  :  1087
 total energy-change (2. order) : 0.2245085E+00  (-0.3589944E-01)
 number of electron   10.9999982 magnetization 
 augmentation part     3.9832222 magnetization 

 Broyden mixing:
  rms(total) = 0.87261E-01    rms(broyden)= 0.87253E-01
  rms(prec ) = 0.35745E+00
  weight for this iteration     100.00

 eigenvalues of (default mixing * dielectric matrix)
  average eigenvalue GAMMA=   1.3246
  1.3246

 Free energy of the ion-electron system (eV)
  ---------------------------------------------------
  alpha Z        PSCENC =       116.80471688
  Ewald energy   TEWEN  =      -998.56820046
  -1/2 Hartree   DENC   =      -108.67255347
  -V(xc)+E(xc)   XCENC  =        15.11130149
  PAW double counting   =       749.41669987     -727.73890065
  entropy T*S    EENTRO =        -0.00098346
  eigenvalues    EBANDS =        23.48892741
  atomic energy  EATOM  =       927.07761444
  ---------------------------------------------------
  free energy    TOTEN  =        -3.08137796 eV

  energy without entropy =       -3.08039450  energy(sigma->0) =       -3.08088623


--------------------------------------------------------------------------------------------------------




----------------------------------------- Iteration    1(   7)  ---------------------------------------


      LOOP:  VPU time    1.11: CPU time    1.11

 eigenvalue-minimisations  :  1135
 total energy-change (2. order) : 0.2503681E-01  (-0.3695070E-02)
 number of electron   10.9999982 magnetization 
 augmentation part     4.0182262 magnetization 

 Broyden mixing:
  rms(total) = 0.27150E-01    rms(broyden)= 0.27144E-01
  rms(prec ) = 0.65451E-01
  weight for this iteration     100.00

 eigenvalues of (default mixing * dielectric matrix)
  average eigenvalue GAMMA=   1.8516
  1.2609  2.4423

 Free energy of the ion-electron system (eV)
  ---------------------------------------------------
  alpha Z        PSCENC =       116.80471688
  Ewald energy   TEWEN  =      -998.56820046
  -1/2 Hartree   DENC   =      -105.86408589
  -V(xc)+E(xc)   XCENC  =        14.98161630
  PAW double counting   =       757.21504635     -736.54756309
  entropy T*S    EENTRO =        -0.00092760
  eigenvalues    EBANDS =        21.84544194
  atomic energy  EATOM  =       927.07761444
  ---------------------------------------------------
  free energy    TOTEN  =        -3.05634115 eV

  energy without entropy =       -3.05541355  energy(sigma->0) =       -3.05587735


--------------------------------------------------------------------------------------------------------




----------------------------------------- Iteration    1(   8)  ---------------------------------------


      LOOP:  VPU time    1.10: CPU time    1.11

 eigenvalue-minimisations  :  1157
 total energy-change (2. order) : 0.4257121E-02  (-0.1360114E-03)
 number of electron   10.9999982 magnetization 
 augmentation part     4.0167890 magnetization 

 Broyden mixing:
  rms(total) = 0.11777E-02    rms(broyden)= 0.11752E-02
  rms(prec ) = 0.25012E-02
  weight for this iteration     100.00

 eigenvalues of (default mixing * dielectric matrix)
  average eigenvalue GAMMA=   1.8510
  1.2584  2.5272  1.7675

 Free energy of the ion-electron system (eV)
  ---------------------------------------------------
  alpha Z        PSCENC =       116.80471688
  Ewald energy   TEWEN  =      -998.56820046
  -1/2 Hartree   DENC   =      -105.09439090
  -V(xc)+E(xc)   XCENC  =        14.94329680
  PAW double counting   =       766.81365438     -746.86611304
  entropy T*S    EENTRO =        -0.00092357
  eigenvalues    EBANDS =        21.83826146
  atomic energy  EATOM  =       927.07761444
  ---------------------------------------------------
  free energy    TOTEN  =        -3.05208403 eV

  energy without entropy =       -3.05116046  energy(sigma->0) =       -3.05162224


--------------------------------------------------------------------------------------------------------




----------------------------------------- Iteration    1(   9)  ---------------------------------------


      LOOP:  VPU time    0.77: CPU time    0.78

 eigenvalue-minimisations  :   683
 total energy-change (2. order) :-0.1152431E-04  (-0.1745380E-05)
 number of electron   10.9999982 magnetization 
 augmentation part     4.0167890 magnetization 

 Free energy of the ion-electron system (eV)
  ---------------------------------------------------
  alpha Z        PSCENC =       116.80471688
  Ewald energy   TEWEN  =      -998.56820046
  -1/2 Hartree   DENC   =      -105.08747793
  -V(xc)+E(xc)   XCENC  =        14.94282477
  PAW double counting   =       767.29311240     -747.34664705
  entropy T*S    EENTRO =        -0.00092327
  eigenvalues    EBANDS =        21.83288467
  atomic energy  EATOM  =       927.07761444
  ---------------------------------------------------
  free energy    TOTEN  =        -3.05209555 eV

  energy without entropy =       -3.05117228  energy(sigma->0) =       -3.05163392


--------------------------------------------------------------------------------------------------------




 average (electrostatic) potential at core
  the test charge radii are     1.2098
  (the norm of the test charge is              1.0000)
       1 -44.9386



 E-fermi :   6.5418     XC(G=0): -13.1088     alpha+bet :-10.8644
   add alpha+bet to get absolut eigen values

 k-point   1 :       0.0625    0.0625    0.0625
  band No.  band energies     occupation 
      1      -3.8130      2.00000
      2       1.4244      2.00000
      3       1.5262      2.00000
      4       1.5262      2.00000
      5       3.1484      2.00000
      6       3.1484      2.00000
      7      22.1241      0.00000
      8      25.1870      0.00000
      9      26.3633      0.00000

 k-point   2 :       0.1875    0.0625    0.0625
  band No.  band energies     occupation 
      1      -3.0805      2.00000
      2       1.1856      2.00000
      3       1.7527      2.00000
      4       1.7756      2.00000
      5       2.9150      2.00000
      6       3.2750      2.00000
      7      22.2305      0.00000
      8      22.9897      0.00000
      9      25.8938      0.00000

 k-point   3 :       0.3125    0.0625    0.0625
  band No.  band energies     occupation 
      1      -1.7529      2.00000
      2       1.2978      2.00000
      3       1.7767      2.00000
      4       1.8362      2.00000
      5       3.1872      2.00000
      6       3.8445      2.00000
      7      17.5532      0.00000
      8      22.8005      0.00000
      9      25.6353      0.00000

 k-point   4 :       0.4375    0.0625    0.0625
  band No.  band energies     occupation 
      1      -1.2641      2.00000
      2       1.4703      2.00000
      3       1.5896      2.00000
      4       3.0526      2.00000
      5       4.0456      2.00000
      6       4.9478      2.00000
      7      12.5283      0.00000
      8      21.7188      0.00000
      9      24.2257      0.00000

 k-point   5 :      -0.4375    0.0625    0.0625
  band No.  band energies     occupation 
      1      -1.2649      2.00000
      2       1.3573      2.00000
      3       1.5237      2.00000
      4       3.7630      2.00000
      5       4.5234      2.00000
      6       6.0447      2.00000
      7      10.1339      0.00000
      8      21.3830      0.00000
      9      24.2808      0.00000

 k-point   6 :      -0.3125    0.0625    0.0625
  band No.  band energies     occupation 
      1      -1.3184      2.00000
      2       1.5257      2.00000
      3       1.7027      2.00000
      4       2.2875      2.00000
      5       4.1754      2.00000
      6       4.1865      2.00000
      7      14.1281      0.00000
      8      22.1102      0.00000
      9      24.9178      0.00000

 k-point   7 :      -0.1875    0.0625    0.0625
  band No.  band energies     occupation 
      1      -2.1757      2.00000
      2       1.1032      2.00000
      3       1.8277      2.00000
      4       1.8878      2.00000
      5       3.0768      2.00000
      6       3.5074      2.00000
      7      19.2506      0.00000
      8      23.2212      0.00000
      9      25.9563      0.00000

 k-point   8 :      -0.0625    0.0625    0.0625
  band No.  band energies     occupation 
      1      -3.4356      2.00000
      2       1.2447      2.00000
      3       1.6862      2.00000
      4       1.6930      2.00000
      5       2.9420      2.00000
      6       3.2512      2.00000
      7      22.5187      0.00000
      8      23.9720      0.00000
      9      26.0114      0.00000

 k-point   9 :       0.1875    0.1875    0.0625
  band No.  band energies     occupation 
      1      -2.7214      2.00000
      2       0.9007      2.00000
      3       1.9897      2.00000
      4       2.0185      2.00000
      5       2.6436      2.00000
      6       3.4448      2.00000
      7      22.6299      0.00000
      8      23.4263      0.00000
      9      24.9337      0.00000

 k-point  10 :       0.3125    0.1875    0.0625
  band No.  band energies     occupation 
      1      -1.5386      2.00000
      2       0.5929      2.00000
      3       1.7658      2.00000
      4       2.4148      2.00000
      5       2.9944      2.00000
      6       3.9663      2.00000
      7      19.6178      0.00000
      8      22.1892      0.00000
      9      24.4828      0.00000

 k-point  11 :       0.4375    0.1875    0.0625
  band No.  band energies     occupation 
      1      -0.7347      2.00000
      2       1.1538      2.00000
      3       1.3641      2.00000
      4       2.2503      2.00000
      5       4.1196      2.00000
      6       5.3769      2.00000
      7      14.4391      0.00000
      8      21.4745      0.00000
      9      22.3767      0.00000

 k-point  12 :      -0.4375    0.1875    0.0625
  band No.  band energies     occupation 
      1      -0.6919      2.00000
      2       0.9855      2.00000
      3       2.0220      2.00000
      4       2.4268      2.00000
      5       4.4458      2.00000
      6       8.0103      0.00000
      7      10.1319      0.00000
      8      20.8601      0.00000
      9      21.6974      0.00000

 k-point  13 :      -0.3125    0.1875    0.0625
  band No.  band energies     occupation 
      1      -0.6342      2.00000
      2       1.1283      2.00000
      3       1.8412      2.00000
      4       2.1521      2.00000
      5       3.9171      2.00000
      6       6.3298      1.99729
      7      12.9357      0.00000
      8      20.2566      0.00000
      9      22.6750      0.00000

 k-point  14 :      -0.1875    0.1875    0.0625
  band No.  band energies     occupation 
      1      -1.0883      2.00000
      2       0.7767      2.00000
      3       1.5810      2.00000
      4       2.3584      2.00000
      5       2.8991      2.00000
      6       4.6109      2.00000
      7      17.8401      0.00000
      8      20.8289      0.00000
      9      24.4423      0.00000

 k-point  15 :      -0.0625    0.1875    0.0625
  band No.  band energies     occupation 
      1      -2.4100      2.00000
      2       0.9432      2.00000
      3       1.8833      2.00000
      4       2.0167      2.00000
      5       2.7622      2.00000
      6       3.5492      2.00000
      7      20.9604      0.00000
      8      22.9386      0.00000
      9      25.4080      0.00000

 k-point  16 :       0.3125    0.3125    0.0625
  band No.  band energies     occupation 
      1      -1.0127      2.00000
      2       0.0512      2.00000
      3       2.1794      2.00000
      4       3.0508      2.00000
      5       3.4720      2.00000
      6       4.0014      2.00000
      7      20.0009      0.00000
      8      21.2597      0.00000
      9      22.3293      0.00000

 k-point  17 :       0.4375    0.3125    0.0625
  band No.  band energies     occupation 
      1      -0.5553      2.00000
      2      -0.1046      2.00000
      3       2.1484      2.00000
      4       3.4734      2.00000
      5       4.1983      2.00000
      6       5.5187      2.00000
      7      16.4630      0.00000
      8      19.0026      0.00000
      9      19.9167      0.00000

 k-point  18 :      -0.4375    0.3125    0.0625
  band No.  band energies     occupation 
      1      -0.3509      2.00000
      2       0.3881      2.00000
      3       1.8858      2.00000
      4       3.1006      2.00000
      5       4.5340      2.00000
      6       8.7972      0.00000
      7      11.9139      0.00000
      8      17.3106      0.00000
      9      19.6621      0.00000

 k-point  19 :      -0.3125    0.3125    0.0625
  band No.  band energies     occupation 
      1       0.0650      2.00000
      2       0.7843      2.00000
      3       1.4062      2.00000
      4       2.8213      2.00000
      5       3.9757      2.00000
      6       8.5897      0.00000
      7      12.9969      0.00000
      8      15.6453      0.00000
      9      21.4428      0.00000

 k-point  20 :      -0.1875    0.3125    0.0625
  band No.  band energies     occupation 
      1      -0.0918      2.00000
      2       0.9277      2.00000
      3       1.1458      2.00000
      4       2.5595      2.00000
      5       3.3910      2.00000
      6       6.3645      1.98788
      7      14.9955      0.00000
      8      18.0072      0.00000
      9      23.0380      0.00000

 k-point  21 :      -0.0625    0.3125    0.0625
  band No.  band energies     occupation 
      1      -1.2300      2.00000
      2       1.3414      2.00000
      3       1.5874      2.00000
      4       1.9552      2.00000
      5       3.5217      2.00000
      6       4.4543      2.00000
      7      15.9575      0.00000
      8      22.2890      0.00000
      9      24.0610      0.00000

 k-point  22 :       0.4375    0.4375    0.0625
  band No.  band energies     occupation 
      1      -0.9343      2.00000
      2      -0.5896      2.00000
      3       3.9319      2.00000
      4       4.1241      2.00000
      5       4.5892      2.00000
      6       5.9517      2.00000
      7      15.4727      0.00000
      8      17.6319      0.00000
      9      18.0836      0.00000

 k-point  23 :      -0.4375    0.4375    0.0625
  band No.  band energies     occupation 
      1      -0.8250      2.00000
      2      -0.4968      2.00000
      3       3.4606      2.00000
      4       4.0816      2.00000
      5       4.7870      2.00000
      6       8.7642      0.00000
      7      12.7976      0.00000
      8      16.0483      0.00000
      9      17.4398      0.00000

 k-point  24 :      -0.3125    0.4375    0.0625
  band No.  band energies     occupation 
      1      -0.3890      2.00000
      2       0.2425      2.00000
      3       2.2005      2.00000
      4       3.3819      2.00000
      5       4.4844      2.00000
      6      10.6182      0.00000
      7      11.4042      0.00000
      8      14.9331      0.00000
      9      19.2187      0.00000

 k-point  25 :      -0.1875    0.4375    0.0625
  band No.  band energies     occupation 
      1      -0.2558      2.00000
      2       0.7668      2.00000
      3       1.9027      2.00000
      4       2.4380      2.00000
      5       4.2562      2.00000
      6       8.9188      0.00000
      7      10.6290      0.00000
      8      18.3574      0.00000
      9      21.5084      0.00000

 k-point  26 :      -0.0625    0.4375    0.0625
  band No.  band energies     occupation 
      1      -1.0494      2.00000
      2       1.2592      2.00000
      3       1.7204      2.00000
      4       2.8962      2.00000
      5       4.3651      2.00000
      6       6.2229      1.99999
      7      11.1736      0.00000
      8      21.5706      0.00000
      9      23.0261      0.00000

 k-point  27 :      -0.4375   -0.4375    0.0625
  band No.  band energies     occupation 
      1      -1.0631      2.00000
      2      -0.7315      2.00000
      3       4.3608      2.00000
      4       4.4505      2.00000
      5       4.8111      2.00000
      6       7.5814      0.00000
      7      13.2024      0.00000
      8      16.7493      0.00000
      9      17.3148      0.00000

 k-point  28 :      -0.3125   -0.4375    0.0625
  band No.  band energies     occupation 
      1      -0.6930      2.00000
      2      -0.3609      2.00000
      3       2.9003      2.00000
      4       3.9335      2.00000
      5       4.5574      2.00000
      6       7.0644      0.00000
      7      14.6466      0.00000
      8      17.2024      0.00000
      9      18.2007      0.00000

 k-point  29 :      -0.1875   -0.4375    0.0625
  band No.  band energies     occupation 
      1      -0.4224      2.00000
      2       0.7089      2.00000
      3       1.5322      2.00000
      4       2.6668      2.00000
      5       4.4652      2.00000
      6       6.8755      0.00000
      7      13.0417      0.00000
      8      19.9155      0.00000
      9      20.5667      0.00000

 k-point  30 :      -0.3125   -0.3125    0.0625
  band No.  band energies     occupation 
      1      -0.8011      2.00000
      2      -0.3192      2.00000
      3       2.9897      2.00000
      4       3.6428      2.00000
      5       4.3012      2.00000
      6       4.4679      2.00000
      7      18.0350      0.00000
      8      19.4697      0.00000
      9      19.5188      0.00000

 k-point  31 :      -0.1875   -0.3125    0.0625
  band No.  band energies     occupation 
      1      -0.7728      2.00000
      2       0.2262      2.00000
      3       1.6778      2.00000
      4       2.9143      2.00000
      5       3.6160      2.00000
      6       4.5359      2.00000
      7      18.1228      0.00000
      8      20.6904      0.00000
      9      22.3795      0.00000

 k-point  32 :      -0.1875   -0.1875    0.0625
  band No.  band energies     occupation 
      1      -1.7965      2.00000
      2       0.4777      2.00000
      3       2.0596      2.00000
      4       2.4839      2.00000
      5       2.7865      2.00000
      6       3.7051      2.00000
      7      21.5379      0.00000
      8      23.2029      0.00000
      9      23.8833      0.00000

 k-point  33 :       0.1875    0.1875    0.1875
  band No.  band energies     occupation 
      1      -2.7642      2.00000
      2       1.2105      2.00000
      3       1.7785      2.00000
      4       1.7785      2.00000
      5       3.1402      2.00000
      6       3.1402      2.00000
      7      20.7703      0.00000
      8      23.1522      0.00000
      9      27.3770      0.00000

 k-point  34 :       0.3125    0.1875    0.1875
  band No.  band energies     occupation 
      1      -1.8311      2.00000
      2       0.9238      2.00000
      3       1.8070      2.00000
      4       2.1179      2.00000
      5       2.6974      2.00000
      6       3.9778      2.00000
      7      19.3426      0.00000
      8      22.0363      0.00000
      9      25.6039      0.00000

 k-point  35 :       0.4375    0.1875    0.1875
  band No.  band energies     occupation 
      1      -0.5689      2.00000
      2       0.9178      2.00000
      3       1.4710      2.00000
      4       2.3060      2.00000
      5       2.9774      2.00000
      6       5.4138      2.00000
      7      16.3026      0.00000
      8      19.4129      0.00000
      9      24.1420      0.00000

 k-point  36 :      -0.4375    0.1875    0.1875
  band No.  band energies     occupation 
      1      -0.4797      2.00000
      2       0.9928      2.00000
      3       2.1347      2.00000
      4       2.1357      2.00000
      5       4.0014      2.00000
      6       7.4454      0.00000
      7      11.6824      0.00000
      8      19.1833      0.00000
      9      23.2349      0.00000

 k-point  37 :      -0.3125    0.1875    0.1875
  band No.  band energies     occupation 
      1      -0.6070      2.00000
      2       0.9356      2.00000
      3       1.9659      2.00000
      4       2.2316      2.00000
      5       4.5761      2.00000
      6       7.4138      0.00000
      7      11.3051      0.00000
      8      20.3701      0.00000
      9      22.2098      0.00000

 k-point  38 :      -0.1875    0.1875    0.1875
  band No.  band energies     occupation 
      1      -0.7790      2.00000
      2       0.5992      2.00000
      3       1.5266      2.00000
      4       2.4747      2.00000
      5       4.3050      2.00000
      6       4.5340      2.00000
      7      16.2137      0.00000
      8      22.0985      0.00000
      9      22.2971      0.00000

 k-point  39 :       0.3125    0.3125    0.1875
  band No.  band energies     occupation 
      1      -1.4288      2.00000
      2       0.8765      2.00000
      3       1.6701      2.00000
      4       2.1188      2.00000
      5       3.5238      2.00000
      6       3.9242      2.00000
      7      17.7528      0.00000
      8      23.1741      0.00000
      9      24.0075      0.00000

 k-point  40 :       0.4375    0.3125    0.1875
  band No.  band energies     occupation 
      1      -0.3959      2.00000
      2       0.5715      2.00000
      3       1.2409      2.00000
      4       2.7742      2.00000
      5       3.4481      2.00000
      6       5.4297      2.00000
      7      16.3938      0.00000
      8      19.4136      0.00000
      9      22.5657      0.00000

 k-point  41 :      -0.4375    0.3125    0.1875
  band No.  band energies     occupation 
      1       0.2838      2.00000
      2       0.6568      2.00000
      3       0.9698      2.00000
      4       2.9474      2.00000
      5       3.9304      2.00000
      6       7.6198      0.00000
      7      13.9035      0.00000
      8      16.7280      0.00000
      9      20.7655      0.00000

 k-point  42 :      -0.3125    0.3125    0.1875
  band No.  band energies     occupation 
      1       0.0346      2.00000
      2       0.5361      2.00000
      3       1.5184      2.00000
      4       2.8368      2.00000
      5       4.3964      2.00000
      6       9.7842      0.00000
      7      10.8243      0.00000
      8      17.4973      0.00000
      9      19.2989      0.00000

 k-point  43 :      -0.1875    0.3125    0.1875
  band No.  band energies     occupation 
      1      -0.1389      2.00000
      2       0.3205      2.00000
      3       1.3389      2.00000
      4       3.2644      2.00000
      5       4.0189      2.00000
      6       6.6082      0.34817
      7      15.0162      0.00000
      8      17.9697      0.00000
      9      20.2402      0.00000

 k-point  44 :       0.4375    0.4375    0.1875
  band No.  band energies     occupation 
      1      -0.5430      2.00000
      2       0.2532      2.00000
      3       1.8923      2.00000
      4       2.9254      2.00000
      5       4.5703      2.00000
      6       5.9882      2.00000
      7      14.6763      0.00000
      8      19.8341      0.00000
      9      20.4953      0.00000

 k-point  45 :      -0.4375    0.4375    0.1875
  band No.  band energies     occupation 
      1      -0.2644      2.00000
      2       0.0724      2.00000
      3       1.8795      2.00000
      4       3.5675      2.00000
      5       4.4721      2.00000
      6       8.2556      0.00000
      7      13.7382      0.00000
      8      16.5257      0.00000
      9      18.1802      0.00000

 k-point  46 :      -0.3125    0.4375    0.1875
  band No.  band energies     occupation 
      1       0.0251      2.00000
      2       0.5520      2.00000
      3       1.3641      2.00000
      4       3.0949      2.00000
      5       4.7750      2.00000
      6      11.0588      0.00000
      7      12.5112      0.00000
      8      14.3167      0.00000
      9      16.9925      0.00000

 k-point  47 :      -0.1875    0.4375    0.1875
  band No.  band energies     occupation 
      1       0.2205      2.00000
      2       0.5434      2.00000
      3       1.1199      2.00000
      4       3.1298      2.00000
      5       4.4337      2.00000
      6       9.2770      0.00000
      7      13.0406      0.00000
      8      15.5947      0.00000
      9      18.4151      0.00000

 k-point  48 :      -0.4375   -0.4375    0.1875
  band No.  band energies     occupation 
      1      -0.6975      2.00000
      2      -0.2035      2.00000
      3       3.0085      2.00000
      4       3.7793      2.00000
      5       4.6098      2.00000
      6       9.6504      0.00000
      7      12.0614      0.00000
      8      15.2841      0.00000
      9      18.7454      0.00000

 k-point  49 :      -0.3125   -0.4375    0.1875
  band No.  band energies     occupation 
      1      -0.4045      2.00000
      2      -0.0493      2.00000
      3       2.3502      2.00000
      4       3.5696      2.00000
      5       4.7777      2.00000
      6      10.1555      0.00000
      7      12.3853      0.00000
      8      15.2458      0.00000
      9      17.2035      0.00000

 k-point  50 :      -0.3125   -0.3125    0.1875
  band No.  band energies     occupation 
      1      -0.6049      2.00000
      2      -0.0473      2.00000
      3       2.5436      2.00000
      4       3.4054      2.00000
      5       4.6640      2.00000
      6       7.7912      0.00000
      7      13.2757      0.00000
      8      17.1989      0.00000
      9      19.3455      0.00000

 k-point  51 :       0.3125    0.3125    0.3125
  band No.  band energies     occupation 
      1      -1.5842      2.00000
      2       1.6847      2.00000
      3       1.6847      2.00000
      4       1.9330      2.00000
      5       3.7201      2.00000
      6       3.7201      2.00000
      7      15.7671      0.00000
      8      22.4370      0.00000
      9      26.8689      0.00000

 k-point  52 :       0.4375    0.3125    0.3125
  band No.  band energies     occupation 
      1      -0.9615      2.00000
      2       1.3768      2.00000
      3       1.8876      2.00000
      4       1.8981      2.00000
      5       3.5275      2.00000
      6       5.2650      2.00000
      7      14.3540      0.00000
      8      21.2903      0.00000
      9      23.5055      0.00000

 k-point  53 :      -0.4375    0.3125    0.3125
  band No.  band energies     occupation 
      1       0.0209      2.00000
      2       0.9557      2.00000
      3       1.3679      2.00000
      4       2.5408      2.00000
      5       3.5809      2.00000
      6       7.3644      0.00000
      7      13.9041      0.00000
      8      16.6849      0.00000
      9      24.1722      0.00000

 k-point  54 :      -0.3125    0.3125    0.3125
  band No.  band energies     occupation 
      1      -0.2382      2.00000
      2       0.6228      2.00000
      3       1.8522      2.00000
      4       3.0677      2.00000
      5       4.1700      2.00000
      6       9.6712      0.00000
      7      12.0345      0.00000
      8      15.0441      0.00000
      9      21.1812      0.00000

 k-point  55 :       0.4375    0.4375    0.3125
  band No.  band energies     occupation 
      1      -0.9727      2.00000
      2       1.2589      2.00000
      3       1.8921      2.00000
      4       2.1490      2.00000
      5       4.4944      2.00000
      6       5.5378      2.00000
      7      12.6300      0.00000
      8      21.8895      0.00000
      9      23.3454      0.00000

 k-point  56 :      -0.4375    0.4375    0.3125
  band No.  band energies     occupation 
      1      -0.2702      2.00000
      2       0.7836      2.00000
      3       1.6829      2.00000
      4       2.4901      2.00000
      5       4.2678      2.00000
      6       7.8568      0.00000
      7      11.7152      0.00000
      8      19.2336      0.00000
      9      20.7916      0.00000

 k-point  57 :      -0.3125    0.4375    0.3125
  band No.  band energies     occupation 
      1       0.0781      2.00000
      2       0.5841      2.00000
      3       1.3975      2.00000
      4       3.0339      2.00000
      5       4.4345      2.00000
      6      10.1001      0.00000
      7      12.2597      0.00000
      8      14.9655      0.00000
      9      18.8771      0.00000

 k-point  58 :      -0.4375   -0.4375    0.3125
  band No.  band energies     occupation 
      1      -0.3350      2.00000
      2       0.6973      2.00000
      3       1.8717      2.00000
      4       2.6684      2.00000
      5       4.4280      2.00000
      6       9.6251      0.00000
      7      10.2662      0.00000
      8      17.7351      0.00000
      9      21.5064      0.00000

 k-point  59 :       0.4375    0.4375    0.4375
  band No.  band energies     occupation 
      1      -1.3709      2.00000
      2       1.4642      2.00000
      3       1.4642      2.00000
      4       4.4064      2.00000
      5       4.4064      2.00000
      6       4.5233      2.00000
      7      11.0740      0.00000
      8      21.3958      0.00000
      9      25.0572      0.00000

 k-point  60 :      -0.4375    0.4375    0.4375
  band No.  band energies     occupation 
      1      -0.9554      2.00000
      2       1.1736      2.00000
      3       1.7589      2.00000
      4       2.9699      2.00000
      5       4.3698      2.00000
      6       7.2249      0.00000
      7      10.1631      0.00000
      8      21.1775      0.00000
      9      22.9470      0.00000


--------------------------------------------------------------------------------------------------------


 soft charge-density along one line, spin component                        1
         0         1         2         3         4         5         6         7         8         9
x     6.9832    1.0259   -0.3280    0.0071    0.0136    0.0001    0.0000    0.0000
y     6.9832   -0.0001    0.0107    0.0012    0.0000    0.0000    0.0000    0.0288
z     6.9832    0.0000    0.0000    0.0058    0.0000    0.0000    0.0000   -0.0001
 total charge-density along one line
x    11.0000    3.5960    0.2126   -0.0105    0.0157   -0.0008    0.0004   -0.0002    0.0001   -0.0001
x     0.0000    0.0000    0.0000    0.0000    0.0000
y    11.0000    3.5960    0.2126   -0.0105    0.0157   -0.0008    0.0004   -0.0002    0.0001   -0.0001
y     0.0000    0.0000    0.0000    0.0000    0.0000
z    11.0000    3.5960    0.2126   -0.0105    0.0157   -0.0008    0.0004   -0.0002    0.0001   -0.0001
z     0.0000    0.0000    0.0000    0.0000    0.0000

 pseudopotential strength for first ion, spin component: 
                        1
 -9.523   0.000   0.000   0.000   0.000  -0.143   0.000   0.000
  0.000  -9.523   0.000   0.000   0.000   0.000  -0.143   0.000
  0.000   0.000  -9.507   0.000   0.000   0.000   0.000  -0.145
  0.000   0.000   0.000  -9.523   0.000   0.000   0.000   0.000
  0.000   0.000   0.000   0.000  -9.507   0.000   0.000   0.000
 -0.143   0.000   0.000   0.000   0.000   0.291   0.000   0.000
  0.000  -0.143   0.000   0.000   0.000   0.000   0.291   0.000
  0.000   0.000  -0.145   0.000   0.000   0.000   0.000   0.291
  0.000   0.000   0.000  -0.143   0.000   0.000   0.000   0.000
  0.000   0.000   0.000   0.000  -0.145   0.000   0.000   0.000
  0.000   0.000   0.000   0.000   0.000   0.000   0.000   0.000
  0.000   0.000   0.000   0.000   0.000   0.000   0.000   0.000
  0.000   0.000   0.000   0.000   0.000   0.000   0.000   0.000
  0.000   0.000   0.000   0.000   0.000   0.000   0.000   0.000
  0.000   0.000   0.000   0.000   0.000   0.000   0.000   0.000
  0.000   0.000   0.000   0.000   0.000   0.000   0.000   0.000
  0.000   0.000   0.000   0.000   0.000   0.000   0.000   0.000
  0.000   0.000   0.000   0.000   0.000   0.000   0.000   0.000
 total augmentation occupancy for first ion, spin component: 
                        1
  1.880   0.001  -0.013  -0.054   0.015   0.352  -0.002  -0.129   0.129  -0.007   0.108  -0.124   0.000   0.000   0.000   0.000
  0.001   1.849  -0.014   0.056   0.010  -0.002   0.013  -0.061  -0.130   0.110  -0.110   0.123   0.000   0.000   0.000   0.000
 -0.013  -0.014   1.883  -0.005   0.056  -0.129  -0.061   0.191   0.003  -0.142  -0.140   0.101   0.000   0.000   0.000   0.000
 -0.054   0.056  -0.005   1.995   0.004   0.129  -0.130   0.003  -0.417  -0.001   0.004   0.000   0.000   0.000   0.000   0.000
  0.015   0.010   0.056   0.004   2.031  -0.008   0.110  -0.142  -0.001  -0.327  -0.087   0.019   0.000   0.000   0.000   0.000
  0.352  -0.002  -0.129   0.129  -0.008   0.301  -0.001   0.051   0.001  -0.007   0.168  -0.029   0.000   0.000   0.000   0.000
 -0.002   0.013  -0.061  -0.130   0.110  -0.001   0.230   0.029   0.003  -0.033  -0.164   0.036   0.000   0.000   0.000   0.000
 -0.129  -0.061   0.191   0.003  -0.142   0.051   0.029   0.251   0.001  -0.030  -0.118   0.066   0.000   0.000   0.000   0.000
  0.129  -0.130   0.003  -0.417  -0.001   0.001   0.003   0.001   0.280   0.001  -0.002  -0.004   0.000   0.000   0.000   0.000
 -0.007   0.110  -0.142  -0.001  -0.327  -0.007  -0.033  -0.030   0.001   0.179  -0.009   0.019   0.000   0.000   0.000   0.000
  0.108  -0.110  -0.140   0.004  -0.087   0.168  -0.164  -0.118  -0.002  -0.009   1.115  -0.442   0.000   0.000   0.000   0.000
 -0.124   0.123   0.101   0.000   0.019  -0.029   0.036   0.066  -0.004   0.019  -0.442   0.311   0.000   0.000   0.000   0.000
  0.000   0.000   0.000   0.000   0.000   0.000   0.000   0.000   0.000   0.000   0.000   0.000   0.137   0.061  -0.064  -0.010
  0.000   0.000   0.000   0.000   0.000   0.000   0.000   0.000   0.000   0.000   0.000   0.000   0.061   0.264  -0.001  -0.004
  0.000   0.000   0.000   0.000   0.000   0.000   0.000   0.000   0.000   0.000   0.000   0.000  -0.064  -0.001   0.170   0.004
  0.000   0.000   0.000   0.000   0.000   0.000   0.000   0.000   0.000   0.000   0.000   0.000  -0.010  -0.004   0.004   0.001
  0.000   0.000   0.000   0.000   0.000   0.000   0.000   0.000   0.000   0.000   0.000   0.000  -0.004  -0.019   0.000   0.000
  0.000   0.000   0.000   0.000   0.000   0.000   0.000   0.000   0.000   0.000   0.000   0.000   0.004   0.000  -0.013   0.000


------------------------ aborting loop because EDIFF is reached ----------------------------------------





 total charge     

# of ion     s       p       d       tot
----------------------------------------
  1        0.564   0.424   8.772   9.759



--------------------------------------------------------------------------------------------------------




--------------------------------------------------------------------------------------------------------



  FREE ENERGIE OF THE ION-ELECTRON SYSTEM (eV)
  ---------------------------------------------------
  free  energy   TOTEN  =        -3.052096 eV

  energy  without entropy=       -3.051172  energy(sigma->0) =       -3.051634


  FORCE on cell =-STRESS in cart. coord.  units (eV/reduce length):
  Direction    X        Y        Z        XY       YZ       ZX
  --------------------------------------------------------------------------------------
  Alpha Z    116.80    116.80    116.80
  Ewald     -332.86   -332.86   -332.86      0.00      0.00      0.00
  Hartree     35.04     35.04     35.04      0.00      0.00      0.00
  E(xc)      -50.11    -50.11    -50.11      0.00      0.00      0.00
  Local       84.59     84.59     84.59      0.00      0.00      0.00
  n-local    -48.16    -45.31    -49.12      0.60     -0.66      0.05
  augment     42.63     42.63     42.63      0.00      0.00      0.00
  Kinetic    153.96    152.85    154.85     -0.37      0.17      0.04
  -------------------------------------------------------------------------------------
  Total        2.45      2.45      2.45      0.00      0.00      0.00
  in kB      245.57    245.57    245.57      0.00      0.00      0.00
  external pressure =      245.57 kB  Pullay stress =        0.00 kB


 VOLUME and BASIS-vectors are now :
 -----------------------------------------------------------------------------
  energy-cutoff  :      350.00
  volume of cell :       16.00
      direct lattice vectors                 reciprocal lattice vectors
     0.000000000  2.000000000  2.000000000    -0.250000000  0.250000000  0.250000000
     2.000000000  0.000000000  2.000000000     0.250000000 -0.250000000  0.250000000
     2.000000000  2.000000000  0.000000000     0.250000000  0.250000000 -0.250000000

  length of vectors
     2.828427125  2.828427125  2.828427125     0.433012702  0.433012702  0.433012702


 FORCES acting on ions
    electron-ion (+dipol)            ewald-force                    non-local-force                 convergence-correction
 -----------------------------------------------------------------------------------------------
   0.463E-14 -.406E-14 -.900E-14   -.417E-16 -.248E-14 0.654E-15   0.000E+00 0.000E+00 0.000E+00   -.262E-14 -.939E-14 -.828E-14
 -----------------------------------------------------------------------------------------------
   0.463E-14 -.406E-14 -.900E-14   -.417E-16 -.248E-14 0.654E-15   0.000E+00 0.000E+00 0.000E+00   -.262E-14 -.939E-14 -.828E-14


 POSITION                                       TOTAL-FORCE (eV/Angst)
 -----------------------------------------------------------------------------------
      0.00000      0.00000      0.00000         0.000000      0.000000      0.000000
 -----------------------------------------------------------------------------------
    total drift:                                0.000000      0.000000      0.000000


--------------------------------------------------------------------------------------------------------



 mean value of Nose-termostat <S>:     1.000 mean value of <T> :     0.000
 mean temperature <T/S>/<1/S>  :     0.000

     LOOP+:  VPU time   11.26: CPU time   10.71



 total charge     

# of ion     s       p       d       tot
----------------------------------------
  1        0.564   0.424   8.772   9.759

  
  
 General timing and accounting informations for this job:
 ========================================================
  
                  Total CPU time used (sec):       12.175
                            User time (sec):        9.572
                          System time (sec):        2.604
                         Elapsed time (sec):       11.822
  
                   Maximum memory used (kb):           0.
                   Average memory used (kb):           0.
  
                          Minor page faults:       152033
                          Major page faults:            0
                 Voluntary context switches:       510667
