PROCAR lm decomposed
# of k-points:   60         # of bands:   9         # of ions:   1

 k-point    1 :    0.06250000 0.06250000 0.06250000     weight = 0.00390625

band   1 # energy   -3.81302971 # occ.  2.00000000

ion      s     py     pz     px    dxy    dyz    dz2    dxz    dx2    tot
  1  0.644  0.002  0.002  0.002  0.000  0.000  0.000  0.000  0.000  0.650

band   2 # energy    1.42435932 # occ.  2.00000000

ion      s     py     pz     px    dxy    dyz    dz2    dxz    dx2    tot
  1  0.000  0.001  0.001  0.001  0.311  0.311  0.000  0.311  0.000  0.934

band   3 # energy    1.52622304 # occ.  2.00000000

ion      s     py     pz     px    dxy    dyz    dz2    dxz    dx2    tot
  1  0.000  0.000  0.000  0.000  0.467  0.000  0.001  0.469  0.000  0.938

band   4 # energy    1.52622334 # occ.  2.00000000

ion      s     py     pz     px    dxy    dyz    dz2    dxz    dx2    tot
  1  0.000  0.000  0.000  0.000  0.157  0.624  0.000  0.155  0.001  0.938

band   5 # energy    3.14839636 # occ.  2.00000000

ion      s     py     pz     px    dxy    dyz    dz2    dxz    dx2    tot
  1  0.000  0.000  0.000  0.000  0.000  0.001  0.233  0.000  0.731  0.966

band   6 # energy    3.14839653 # occ.  2.00000000

ion      s     py     pz     px    dxy    dyz    dz2    dxz    dx2    tot
  1  0.000  0.000  0.000  0.000  0.001  0.000  0.731  0.001  0.233  0.966

band   7 # energy   22.12413794 # occ.  0.00000000

ion      s     py     pz     px    dxy    dyz    dz2    dxz    dx2    tot
  1  0.000  0.000  0.000  0.000  0.007  0.007  0.000  0.007  0.000  0.021

band   8 # energy   25.18700812 # occ.  0.00000000

ion      s     py     pz     px    dxy    dyz    dz2    dxz    dx2    tot
  1  0.019  0.059  0.058  0.057  0.008  0.008  0.000  0.008  0.000  0.216

band   9 # energy   26.36331375 # occ.  0.00000000

ion      s     py     pz     px    dxy    dyz    dz2    dxz    dx2    tot
  1  0.000  0.103  0.074  0.015  0.003  0.001  0.005  0.005  0.004  0.209


 k-point    2 :    0.18750000 0.06250000 0.06250000     weight = 0.01171875

band   1 # energy   -3.08046802 # occ.  2.00000000

ion      s     py     pz     px    dxy    dyz    dz2    dxz    dx2    tot
  1  0.605  0.018  0.018  0.002  0.001  0.007  0.000  0.001  0.001  0.653

band   2 # energy    1.18560621 # occ.  2.00000000

ion      s     py     pz     px    dxy    dyz    dz2    dxz    dx2    tot
  1  0.001  0.001  0.001  0.007  0.440  0.026  0.000  0.440  0.000  0.917

band   3 # energy    1.75267393 # occ.  2.00000000

ion      s     py     pz     px    dxy    dyz    dz2    dxz    dx2    tot
  1  0.000  0.000  0.000  0.000  0.461  0.000  0.012  0.461  0.004  0.939

band   4 # energy    1.77563166 # occ.  2.00000000

ion      s     py     pz     px    dxy    dyz    dz2    dxz    dx2    tot
  1  0.001  0.003  0.003  0.000  0.013  0.828  0.018  0.013  0.054  0.935

band   5 # energy    2.91497610 # occ.  2.00000000

ion      s     py     pz     px    dxy    dyz    dz2    dxz    dx2    tot
  1  0.000  0.000  0.000  0.000  0.008  0.000  0.703  0.008  0.234  0.954

band   6 # energy    3.27497020 # occ.  2.00000000

ion      s     py     pz     px    dxy    dyz    dz2    dxz    dx2    tot
  1  0.001  0.000  0.000  0.000  0.001  0.069  0.222  0.001  0.666  0.963

band   7 # energy   22.23050049 # occ.  0.00000000

ion      s     py     pz     px    dxy    dyz    dz2    dxz    dx2    tot
  1  0.044  0.059  0.059  0.048  0.052  0.052  0.001  0.052  0.004  0.371

band   8 # energy   22.98972829 # occ.  0.00000000

ion      s     py     pz     px    dxy    dyz    dz2    dxz    dx2    tot
  1  0.019  0.023  0.023  0.002  0.027  0.007  0.001  0.027  0.004  0.133

band   9 # energy   25.89382226 # occ.  0.00000000

ion      s     py     pz     px    dxy    dyz    dz2    dxz    dx2    tot
  1  0.001  0.011  0.011  0.249  0.031  0.018  0.002  0.031  0.007  0.360


 k-point    3 :    0.31250000 0.06250000 0.06250000     weight = 0.01171875

band   1 # energy   -1.75287743 # occ.  2.00000000

ion      s     py     pz     px    dxy    dyz    dz2    dxz    dx2    tot
  1  0.454  0.028  0.028  0.006  0.053  0.077  0.000  0.053  0.001  0.700

band   2 # energy    1.29784373 # occ.  2.00000000

ion      s     py     pz     px    dxy    dyz    dz2    dxz    dx2    tot
  1  0.051  0.020  0.020  0.033  0.360  0.007  0.000  0.360  0.001  0.854

band   3 # energy    1.77670507 # occ.  2.00000000

ion      s     py     pz     px    dxy    dyz    dz2    dxz    dx2    tot
  1  0.006  0.008  0.008  0.000  0.009  0.498  0.095  0.009  0.286  0.919

band   4 # energy    1.83624793 # occ.  2.00000000

ion      s     py     pz     px    dxy    dyz    dz2    dxz    dx2    tot
  1  0.000  0.000  0.000  0.000  0.286  0.000  0.272  0.286  0.091  0.935

band   5 # energy    3.18716401 # occ.  2.00000000

ion      s     py     pz     px    dxy    dyz    dz2    dxz    dx2    tot
  1  0.000  0.001  0.001  0.000  0.186  0.000  0.434  0.186  0.145  0.952

band   6 # energy    3.84450840 # occ.  2.00000000

ion      s     py     pz     px    dxy    dyz    dz2    dxz    dx2    tot
  1  0.012  0.005  0.005  0.000  0.015  0.340  0.142  0.015  0.425  0.959

band   7 # energy   17.55319799 # occ.  0.00000000

ion      s     py     pz     px    dxy    dyz    dz2    dxz    dx2    tot
  1  0.152  0.091  0.091  0.094  0.066  0.073  0.001  0.066  0.003  0.638

band   8 # energy   22.80052922 # occ.  0.00000000

ion      s     py     pz     px    dxy    dyz    dz2    dxz    dx2    tot
  1  0.001  0.000  0.000  0.050  0.066  0.000  0.003  0.066  0.009  0.196

band   9 # energy   25.63534477 # occ.  0.00000000

ion      s     py     pz     px    dxy    dyz    dz2    dxz    dx2    tot
  1  0.013  0.092  0.092  0.221  0.032  0.081  0.001  0.032  0.004  0.569


 k-point    4 :    0.43750000 0.06250000 0.06250000     weight = 0.01171875

band   1 # energy   -1.26412838 # occ.  2.00000000

ion      s     py     pz     px    dxy    dyz    dz2    dxz    dx2    tot
  1  0.233  0.008  0.008  0.000  0.181  0.190  0.000  0.181  0.000  0.800

band   2 # energy    1.47029284 # occ.  2.00000000

ion      s     py     pz     px    dxy    dyz    dz2    dxz    dx2    tot
  1  0.000  0.001  0.001  0.001  0.065  0.283  0.127  0.065  0.381  0.923

band   3 # energy    1.58963205 # occ.  2.00000000

ion      s     py     pz     px    dxy    dyz    dz2    dxz    dx2    tot
  1  0.000  0.000  0.000  0.000  0.193  0.000  0.406  0.193  0.135  0.928

band   4 # energy    3.05261181 # occ.  2.00000000

ion      s     py     pz     px    dxy    dyz    dz2    dxz    dx2    tot
  1  0.083  0.073  0.073  0.074  0.153  0.019  0.033  0.153  0.099  0.760

band   5 # energy    4.04563420 # occ.  2.00000000

ion      s     py     pz     px    dxy    dyz    dz2    dxz    dx2    tot
  1  0.000  0.001  0.001  0.000  0.285  0.000  0.298  0.285  0.099  0.968

band   6 # energy    4.94776162 # occ.  2.00000000

ion      s     py     pz     px    dxy    dyz    dz2    dxz    dx2    tot
  1  0.060  0.039  0.039  0.022  0.007  0.418  0.076  0.007  0.227  0.893

band   7 # energy   12.52828490 # occ.  0.00000000

ion      s     py     pz     px    dxy    dyz    dz2    dxz    dx2    tot
  1  0.305  0.061  0.061  0.077  0.095  0.076  0.001  0.095  0.003  0.776

band   8 # energy   21.71878846 # occ.  0.00000000

ion      s     py     pz     px    dxy    dyz    dz2    dxz    dx2    tot
  1  0.000  0.002  0.002  0.029  0.019  0.001  0.004  0.019  0.012  0.087

band   9 # energy   24.22572874 # occ.  0.00000000

ion      s     py     pz     px    dxy    dyz    dz2    dxz    dx2    tot
  1  0.014  0.087  0.089  0.275  0.031  0.009  0.002  0.031  0.005  0.544


 k-point    5 :   -0.43750000 0.06250000 0.06250000     weight = 0.01171875

band   1 # energy   -1.26494453 # occ.  2.00000000

ion      s     py     pz     px    dxy    dyz    dz2    dxz    dx2    tot
  1  0.190  0.000  0.000  0.004  0.201  0.222  0.000  0.201  0.000  0.819

band   2 # energy    1.35729019 # occ.  2.00000000

ion      s     py     pz     px    dxy    dyz    dz2    dxz    dx2    tot
  1  0.000  0.001  0.001  0.000  0.067  0.223  0.140  0.067  0.421  0.919

band   3 # energy    1.52365643 # occ.  2.00000000

ion      s     py     pz     px    dxy    dyz    dz2    dxz    dx2    tot
  1  0.000  0.001  0.001  0.000  0.188  0.000  0.412  0.188  0.137  0.926

band   4 # energy    3.76298755 # occ.  2.00000000

ion      s     py     pz     px    dxy    dyz    dz2    dxz    dx2    tot
  1  0.004  0.050  0.050  0.046  0.059  0.337  0.061  0.059  0.184  0.851

band   5 # energy    4.52339813 # occ.  2.00000000

ion      s     py     pz     px    dxy    dyz    dz2    dxz    dx2    tot
  1  0.000  0.000  0.000  0.000  0.294  0.000  0.295  0.294  0.098  0.981

band   6 # energy    6.04470764 # occ.  2.00000000

ion      s     py     pz     px    dxy    dyz    dz2    dxz    dx2    tot
  1  0.014  0.121  0.121  0.138  0.053  0.063  0.033  0.053  0.099  0.695

band   7 # energy   10.13387661 # occ.  0.00000000

ion      s     py     pz     px    dxy    dyz    dz2    dxz    dx2    tot
  1  0.474  0.010  0.010  0.003  0.122  0.137  0.000  0.122  0.000  0.877

band   8 # energy   21.38300489 # occ.  0.00000000

ion      s     py     pz     px    dxy    dyz    dz2    dxz    dx2    tot
  1  0.000  0.004  0.004  0.016  0.001  0.010  0.004  0.001  0.012  0.053

band   9 # energy   24.28081164 # occ.  0.00000000

ion      s     py     pz     px    dxy    dyz    dz2    dxz    dx2    tot
  1  0.013  0.049  0.122  0.282  0.008  0.012  0.003  0.012  0.018  0.519


 k-point    6 :   -0.31250000 0.06250000 0.06250000     weight = 0.01171875

band   1 # energy   -1.31839425 # occ.  2.00000000

ion      s     py     pz     px    dxy    dyz    dz2    dxz    dx2    tot
  1  0.284  0.003  0.003  0.021  0.148  0.165  0.001  0.148  0.002  0.776

band   2 # energy    1.52566928 # occ.  2.00000000

ion      s     py     pz     px    dxy    dyz    dz2    dxz    dx2    tot
  1  0.001  0.000  0.000  0.000  0.086  0.240  0.128  0.086  0.384  0.925

band   3 # energy    1.70267191 # occ.  2.00000000

ion      s     py     pz     px    dxy    dyz    dz2    dxz    dx2    tot
  1  0.000  0.001  0.001  0.000  0.230  0.000  0.350  0.230  0.117  0.930

band   4 # energy    2.28751680 # occ.  2.00000000

ion      s     py     pz     px    dxy    dyz    dz2    dxz    dx2    tot
  1  0.104  0.060  0.060  0.058  0.019  0.364  0.022  0.019  0.067  0.772

band   5 # energy    4.17537077 # occ.  2.00000000

ion      s     py     pz     px    dxy    dyz    dz2    dxz    dx2    tot
  1  0.045  0.013  0.013  0.033  0.182  0.118  0.082  0.182  0.247  0.915

band   6 # energy    4.18652907 # occ.  2.00000000

ion      s     py     pz     px    dxy    dyz    dz2    dxz    dx2    tot
  1  0.000  0.001  0.001  0.000  0.245  0.000  0.362  0.245  0.121  0.973

band   7 # energy   14.12810727 # occ.  0.00000000

ion      s     py     pz     px    dxy    dyz    dz2    dxz    dx2    tot
  1  0.245  0.088  0.088  0.073  0.076  0.086  0.001  0.076  0.002  0.735

band   8 # energy   22.11019456 # occ.  0.00000000

ion      s     py     pz     px    dxy    dyz    dz2    dxz    dx2    tot
  1  0.000  0.009  0.009  0.009  0.004  0.036  0.004  0.004  0.012  0.085

band   9 # energy   24.91777491 # occ.  0.00000000

ion      s     py     pz     px    dxy    dyz    dz2    dxz    dx2    tot
  1  0.000  0.233  0.235  0.000  0.055  0.000  0.011  0.055  0.004  0.593


 k-point    7 :   -0.18750000 0.06250000 0.06250000     weight = 0.01171875

band   1 # energy   -2.17566269 # occ.  2.00000000

ion      s     py     pz     px    dxy    dyz    dz2    dxz    dx2    tot
  1  0.525  0.012  0.012  0.040  0.029  0.020  0.001  0.029  0.003  0.672

band   2 # energy    1.10324622 # occ.  2.00000000

ion      s     py     pz     px    dxy    dyz    dz2    dxz    dx2    tot
  1  0.022  0.014  0.014  0.010  0.096  0.630  0.000  0.096  0.000  0.883

band   3 # energy    1.82768488 # occ.  2.00000000

ion      s     py     pz     px    dxy    dyz    dz2    dxz    dx2    tot
  1  0.001  0.002  0.002  0.002  0.221  0.175  0.077  0.221  0.230  0.930

band   4 # energy    1.88779457 # occ.  2.00000000

ion      s     py     pz     px    dxy    dyz    dz2    dxz    dx2    tot
  1  0.000  0.002  0.002  0.000  0.357  0.000  0.163  0.357  0.054  0.936

band   5 # energy    3.07676822 # occ.  2.00000000

ion      s     py     pz     px    dxy    dyz    dz2    dxz    dx2    tot
  1  0.008  0.001  0.001  0.006  0.107  0.085  0.158  0.107  0.474  0.946

band   6 # energy    3.50735564 # occ.  2.00000000

ion      s     py     pz     px    dxy    dyz    dz2    dxz    dx2    tot
  1  0.000  0.001  0.001  0.000  0.111  0.000  0.555  0.111  0.185  0.963

band   7 # energy   19.25055371 # occ.  0.00000000

ion      s     py     pz     px    dxy    dyz    dz2    dxz    dx2    tot
  1  0.112  0.093  0.093  0.080  0.066  0.058  0.001  0.066  0.003  0.572

band   8 # energy   23.22120548 # occ.  0.00000000

ion      s     py     pz     px    dxy    dyz    dz2    dxz    dx2    tot
  1  0.001  0.006  0.006  0.000  0.017  0.089  0.002  0.017  0.006  0.146

band   9 # energy   25.95634907 # occ.  0.00000000

ion      s     py     pz     px    dxy    dyz    dz2    dxz    dx2    tot
  1  0.000  0.193  0.194  0.000  0.095  0.000  0.019  0.095  0.006  0.601


 k-point    8 :   -0.06250000 0.06250000 0.06250000     weight = 0.01171875

band   1 # energy   -3.43563236 # occ.  2.00000000

ion      s     py     pz     px    dxy    dyz    dz2    dxz    dx2    tot
  1  0.625  0.002  0.002  0.019  0.001  0.000  0.000  0.001  0.001  0.651

band   2 # energy    1.24465569 # occ.  2.00000000

ion      s     py     pz     px    dxy    dyz    dz2    dxz    dx2    tot
  1  0.000  0.001  0.001  0.000  0.049  0.826  0.000  0.049  0.000  0.926

band   3 # energy    1.68616248 # occ.  2.00000000

ion      s     py     pz     px    dxy    dyz    dz2    dxz    dx2    tot
  1  0.000  0.001  0.001  0.001  0.413  0.101  0.002  0.413  0.005  0.937

band   4 # energy    1.69300735 # occ.  2.00000000

ion      s     py     pz     px    dxy    dyz    dz2    dxz    dx2    tot
  1  0.000  0.002  0.002  0.000  0.462  0.000  0.007  0.462  0.002  0.937

band   5 # energy    2.94204728 # occ.  2.00000000

ion      s     py     pz     px    dxy    dyz    dz2    dxz    dx2    tot
  1  0.001  0.000  0.000  0.000  0.003  0.001  0.237  0.003  0.711  0.957

band   6 # energy    3.25119228 # occ.  2.00000000

ion      s     py     pz     px    dxy    dyz    dz2    dxz    dx2    tot
  1  0.000  0.000  0.000  0.000  0.005  0.000  0.718  0.005  0.239  0.967

band   7 # energy   22.51874336 # occ.  0.00000000

ion      s     py     pz     px    dxy    dyz    dz2    dxz    dx2    tot
  1  0.001  0.004  0.004  0.001  0.010  0.063  0.000  0.010  0.000  0.094

band   8 # energy   23.97203279 # occ.  0.00000000

ion      s     py     pz     px    dxy    dyz    dz2    dxz    dx2    tot
  1  0.040  0.043  0.043  0.073  0.018  0.001  0.003  0.018  0.010  0.248

band   9 # energy   26.01140234 # occ.  0.00000000

ion      s     py     pz     px    dxy    dyz    dz2    dxz    dx2    tot
  1  0.000  0.152  0.099  0.001  0.045  0.000  0.003  0.033  0.004  0.338


 k-point    9 :    0.18750000 0.18750000 0.06250000     weight = 0.01171875

band   1 # energy   -2.72140343 # occ.  2.00000000

ion      s     py     pz     px    dxy    dyz    dz2    dxz    dx2    tot
  1  0.583  0.002  0.050  0.002  0.000  0.002  0.011  0.002  0.000  0.653

band   2 # energy    0.90070272 # occ.  2.00000000

ion      s     py     pz     px    dxy    dyz    dz2    dxz    dx2    tot
  1  0.000  0.001  0.000  0.001  0.881  0.015  0.000  0.015  0.000  0.914

band   3 # energy    1.98968658 # occ.  2.00000000

ion      s     py     pz     px    dxy    dyz    dz2    dxz    dx2    tot
  1  0.000  0.003  0.000  0.003  0.030  0.402  0.094  0.402  0.000  0.935

band   4 # energy    2.01851092 # occ.  2.00000000

ion      s     py     pz     px    dxy    dyz    dz2    dxz    dx2    tot
  1  0.000  0.004  0.000  0.004  0.000  0.451  0.000  0.451  0.028  0.938

band   5 # energy    2.64364120 # occ.  2.00000000

ion      s     py     pz     px    dxy    dyz    dz2    dxz    dx2    tot
  1  0.009  0.000  0.004  0.000  0.003  0.044  0.834  0.044  0.000  0.940

band   6 # energy    3.44475851 # occ.  2.00000000

ion      s     py     pz     px    dxy    dyz    dz2    dxz    dx2    tot
  1  0.000  0.000  0.000  0.000  0.000  0.014  0.000  0.014  0.939  0.968

band   7 # energy   22.62993985 # occ.  0.00000000

ion      s     py     pz     px    dxy    dyz    dz2    dxz    dx2    tot
  1  0.045  0.068  0.043  0.068  0.056  0.045  0.023  0.045  0.000  0.392

band   8 # energy   23.42626565 # occ.  0.00000000

ion      s     py     pz     px    dxy    dyz    dz2    dxz    dx2    tot
  1  0.015  0.002  0.014  0.002  0.108  0.000  0.019  0.000  0.000  0.159

band   9 # energy   24.93370947 # occ.  0.00000000

ion      s     py     pz     px    dxy    dyz    dz2    dxz    dx2    tot
  1  0.000  0.175  0.000  0.173  0.000  0.085  0.000  0.084  0.004  0.521


 k-point   10 :    0.31250000 0.18750000 0.06250000     weight = 0.02343750

band   1 # energy   -1.53860667 # occ.  2.00000000

ion      s     py     pz     px    dxy    dyz    dz2    dxz    dx2    tot
  1  0.477  0.012  0.078  0.001  0.007  0.039  0.051  0.006  0.000  0.672

band   2 # energy    0.59292523 # occ.  2.00000000

ion      s     py     pz     px    dxy    dyz    dz2    dxz    dx2    tot
  1  0.004  0.002  0.002  0.011  0.810  0.002  0.003  0.059  0.000  0.894

band   3 # energy    1.76582056 # occ.  2.00000000

ion      s     py     pz     px    dxy    dyz    dz2    dxz    dx2    tot
  1  0.004  0.006  0.001  0.000  0.012  0.336  0.507  0.017  0.035  0.918

band   4 # energy    2.41476550 # occ.  2.00000000

ion      s     py     pz     px    dxy    dyz    dz2    dxz    dx2    tot
  1  0.002  0.002  0.001  0.006  0.043  0.109  0.036  0.602  0.138  0.939

band   5 # energy    2.99435972 # occ.  2.00000000

ion      s     py     pz     px    dxy    dyz    dz2    dxz    dx2    tot
  1  0.025  0.004  0.016  0.003  0.027  0.150  0.277  0.231  0.196  0.930

band   6 # energy    3.96634026 # occ.  2.00000000

ion      s     py     pz     px    dxy    dyz    dz2    dxz    dx2    tot
  1  0.014  0.004  0.006  0.000  0.000  0.292  0.047  0.005  0.594  0.963

band   7 # energy   19.61783798 # occ.  0.00000000

ion      s     py     pz     px    dxy    dyz    dz2    dxz    dx2    tot
  1  0.119  0.151  0.073  0.067  0.032  0.082  0.017  0.036  0.005  0.582

band   8 # energy   22.18919850 # occ.  0.00000000

ion      s     py     pz     px    dxy    dyz    dz2    dxz    dx2    tot
  1  0.009  0.039  0.005  0.262  0.119  0.018  0.010  0.128  0.006  0.596

band   9 # energy   24.48282931 # occ.  0.00000000

ion      s     py     pz     px    dxy    dyz    dz2    dxz    dx2    tot
  1  0.012  0.066  0.068  0.029  0.018  0.021  0.136  0.008  0.001  0.357


 k-point   11 :    0.43750000 0.18750000 0.06250000     weight = 0.02343750

band   1 # energy   -0.73473909 # occ.  2.00000000

ion      s     py     pz     px    dxy    dyz    dz2    dxz    dx2    tot
  1  0.226  0.004  0.042  0.001  0.236  0.136  0.050  0.091  0.000  0.786

band   2 # energy    1.15383376 # occ.  2.00000000

ion      s     py     pz     px    dxy    dyz    dz2    dxz    dx2    tot
  1  0.017  0.030  0.011  0.022  0.108  0.050  0.547  0.045  0.017  0.846

band   3 # energy    1.36409346 # occ.  2.00000000

ion      s     py     pz     px    dxy    dyz    dz2    dxz    dx2    tot
  1  0.057  0.004  0.028  0.015  0.441  0.221  0.076  0.000  0.032  0.876

band   4 # energy    2.25025137 # occ.  2.00000000

ion      s     py     pz     px    dxy    dyz    dz2    dxz    dx2    tot
  1  0.005  0.005  0.006  0.001  0.046  0.078  0.035  0.313  0.440  0.929

band   5 # energy    4.11964513 # occ.  2.00000000

ion      s     py     pz     px    dxy    dyz    dz2    dxz    dx2    tot
  1  0.009  0.002  0.012  0.006  0.032  0.037  0.063  0.445  0.351  0.956

band   6 # energy    5.37693690 # occ.  2.00000000

ion      s     py     pz     px    dxy    dyz    dz2    dxz    dx2    tot
  1  0.105  0.023  0.059  0.011  0.011  0.413  0.140  0.021  0.110  0.894

band   7 # energy   14.43912232 # occ.  0.00000000

ion      s     py     pz     px    dxy    dyz    dz2    dxz    dx2    tot
  1  0.234  0.104  0.070  0.108  0.077  0.049  0.008  0.058  0.006  0.714

band   8 # energy   21.47450646 # occ.  0.00000000

ion      s     py     pz     px    dxy    dyz    dz2    dxz    dx2    tot
  1  0.013  0.078  0.005  0.255  0.077  0.020  0.020  0.065  0.032  0.567

band   9 # energy   22.37665426 # occ.  0.00000000

ion      s     py     pz     px    dxy    dyz    dz2    dxz    dx2    tot
  1  0.032  0.004  0.159  0.045  0.000  0.004  0.150  0.016  0.001  0.411


 k-point   12 :   -0.43750000 0.18750000 0.06250000     weight = 0.02343750

band   1 # energy   -0.69193681 # occ.  2.00000000

ion      s     py     pz     px    dxy    dyz    dz2    dxz    dx2    tot
  1  0.147  0.000  0.017  0.008  0.305  0.202  0.009  0.138  0.001  0.828

band   2 # energy    0.98548237 # occ.  2.00000000

ion      s     py     pz     px    dxy    dyz    dz2    dxz    dx2    tot
  1  0.000  0.011  0.000  0.002  0.089  0.137  0.564  0.015  0.067  0.887

band   3 # energy    2.02197313 # occ.  2.00000000

ion      s     py     pz     px    dxy    dyz    dz2    dxz    dx2    tot
  1  0.000  0.000  0.000  0.008  0.001  0.088  0.082  0.240  0.507  0.927

band   4 # energy    2.42681873 # occ.  2.00000000

ion      s     py     pz     px    dxy    dyz    dz2    dxz    dx2    tot
  1  0.005  0.045  0.053  0.042  0.354  0.169  0.103  0.031  0.035  0.837

band   5 # energy    4.44578116 # occ.  2.00000000

ion      s     py     pz     px    dxy    dyz    dz2    dxz    dx2    tot
  1  0.001  0.000  0.000  0.000  0.036  0.173  0.030  0.428  0.308  0.977

band   6 # energy    8.01033573 # occ.  0.00000000

ion      s     py     pz     px    dxy    dyz    dz2    dxz    dx2    tot
  1  0.036  0.098  0.154  0.103  0.039  0.129  0.135  0.025  0.016  0.736

band   7 # energy   10.13185625 # occ.  0.00000000

ion      s     py     pz     px    dxy    dyz    dz2    dxz    dx2    tot
  1  0.465  0.018  0.002  0.036  0.142  0.076  0.002  0.097  0.004  0.841

band   8 # energy   20.86012698 # occ.  0.00000000

ion      s     py     pz     px    dxy    dyz    dz2    dxz    dx2    tot
  1  0.032  0.025  0.222  0.023  0.000  0.047  0.131  0.024  0.000  0.504

band   9 # energy   21.69738445 # occ.  0.00000000

ion      s     py     pz     px    dxy    dyz    dz2    dxz    dx2    tot
  1  0.027  0.035  0.033  0.261  0.062  0.000  0.010  0.025  0.070  0.524


 k-point   13 :   -0.31250000 0.18750000 0.06250000     weight = 0.02343750

band   1 # energy   -0.63421667 # occ.  2.00000000

ion      s     py     pz     px    dxy    dyz    dz2    dxz    dx2    tot
  1  0.188  0.008  0.006  0.025  0.240  0.210  0.000  0.125  0.006  0.808

band   2 # energy    1.12830646 # occ.  2.00000000

ion      s     py     pz     px    dxy    dyz    dz2    dxz    dx2    tot
  1  0.000  0.007  0.001  0.000  0.219  0.108  0.467  0.005  0.090  0.898

band   3 # energy    1.84123601 # occ.  2.00000000

ion      s     py     pz     px    dxy    dyz    dz2    dxz    dx2    tot
  1  0.035  0.036  0.045  0.027  0.082  0.173  0.032  0.165  0.244  0.838

band   4 # energy    2.15212361 # occ.  2.00000000

ion      s     py     pz     px    dxy    dyz    dz2    dxz    dx2    tot
  1  0.015  0.011  0.004  0.027  0.000  0.234  0.175  0.128  0.304  0.899

band   5 # energy    3.91708592 # occ.  2.00000000

ion      s     py     pz     px    dxy    dyz    dz2    dxz    dx2    tot
  1  0.001  0.000  0.003  0.006  0.022  0.138  0.049  0.466  0.274  0.959

band   6 # energy    6.32979357 # occ.  1.99728850

ion      s     py     pz     px    dxy    dyz    dz2    dxz    dx2    tot
  1  0.145  0.041  0.019  0.067  0.383  0.003  0.196  0.005  0.009  0.867

band   7 # energy   12.93570027 # occ.  0.00000000

ion      s     py     pz     px    dxy    dyz    dz2    dxz    dx2    tot
  1  0.273  0.075  0.107  0.061  0.036  0.091  0.031  0.073  0.000  0.748

band   8 # energy   20.25664673 # occ.  0.00000000

ion      s     py     pz     px    dxy    dyz    dz2    dxz    dx2    tot
  1  0.033  0.047  0.274  0.028  0.006  0.089  0.062  0.071  0.000  0.612

band   9 # energy   22.67497597 # occ.  0.00000000

ion      s     py     pz     px    dxy    dyz    dz2    dxz    dx2    tot
  1  0.023  0.001  0.026  0.148  0.025  0.000  0.030  0.004  0.062  0.319


 k-point   14 :   -0.18750000 0.18750000 0.06250000     weight = 0.02343750

band   1 # energy   -1.08828216 # occ.  2.00000000

ion      s     py     pz     px    dxy    dyz    dz2    dxz    dx2    tot
  1  0.422  0.029  0.000  0.065  0.121  0.021  0.010  0.014  0.013  0.695

band   2 # energy    0.77672139 # occ.  2.00000000

ion      s     py     pz     px    dxy    dyz    dz2    dxz    dx2    tot
  1  0.013  0.004  0.028  0.005  0.001  0.639  0.000  0.188  0.002  0.880

band   3 # energy    1.58097152 # occ.  2.00000000

ion      s     py     pz     px    dxy    dyz    dz2    dxz    dx2    tot
  1  0.001  0.012  0.000  0.003  0.328  0.004  0.422  0.002  0.134  0.906

band   4 # energy    2.35837291 # occ.  2.00000000

ion      s     py     pz     px    dxy    dyz    dz2    dxz    dx2    tot
  1  0.004  0.001  0.001  0.004  0.034  0.119  0.053  0.358  0.361  0.935

band   5 # energy    2.89908733 # occ.  2.00000000

ion      s     py     pz     px    dxy    dyz    dz2    dxz    dx2    tot
  1  0.007  0.001  0.002  0.008  0.013  0.112  0.029  0.347  0.421  0.939

band   6 # energy    4.61088888 # occ.  2.00000000

ion      s     py     pz     px    dxy    dyz    dz2    dxz    dx2    tot
  1  0.050  0.012  0.000  0.017  0.437  0.001  0.431  0.000  0.000  0.949

band   7 # energy   17.84011304 # occ.  0.00000000

ion      s     py     pz     px    dxy    dyz    dz2    dxz    dx2    tot
  1  0.171  0.133  0.055  0.097  0.074  0.031  0.031  0.031  0.001  0.624

band   8 # energy   20.82893822 # occ.  0.00000000

ion      s     py     pz     px    dxy    dyz    dz2    dxz    dx2    tot
  1  0.014  0.023  0.302  0.011  0.012  0.148  0.014  0.142  0.000  0.666

band   9 # energy   24.44228108 # occ.  0.00000000

ion      s     py     pz     px    dxy    dyz    dz2    dxz    dx2    tot
  1  0.024  0.032  0.014  0.109  0.000  0.001  0.040  0.001  0.053  0.275


 k-point   15 :   -0.06250000 0.18750000 0.06250000     weight = 0.02343750

band   1 # energy   -2.41002910 # occ.  2.00000000

ion      s     py     pz     px    dxy    dyz    dz2    dxz    dx2    tot
  1  0.560  0.015  0.001  0.047  0.021  0.002  0.003  0.003  0.004  0.658

band   2 # energy    0.94320717 # occ.  2.00000000

ion      s     py     pz     px    dxy    dyz    dz2    dxz    dx2    tot
  1  0.003  0.002  0.010  0.001  0.008  0.728  0.000  0.153  0.000  0.906

band   3 # energy    1.88330614 # occ.  2.00000000

ion      s     py     pz     px    dxy    dyz    dz2    dxz    dx2    tot
  1  0.001  0.007  0.000  0.002  0.635  0.022  0.201  0.009  0.052  0.929

band   4 # energy    2.01665958 # occ.  2.00000000

ion      s     py     pz     px    dxy    dyz    dz2    dxz    dx2    tot
  1  0.000  0.000  0.003  0.000  0.033  0.141  0.009  0.700  0.053  0.939

band   5 # energy    2.76215665 # occ.  2.00000000

ion      s     py     pz     px    dxy    dyz    dz2    dxz    dx2    tot
  1  0.006  0.000  0.000  0.004  0.063  0.019  0.012  0.051  0.788  0.943

band   6 # energy    3.54915462 # occ.  2.00000000

ion      s     py     pz     px    dxy    dyz    dz2    dxz    dx2    tot
  1  0.005  0.002  0.000  0.002  0.168  0.000  0.733  0.005  0.048  0.964

band   7 # energy   20.96037840 # occ.  0.00000000

ion      s     py     pz     px    dxy    dyz    dz2    dxz    dx2    tot
  1  0.087  0.107  0.051  0.075  0.076  0.032  0.014  0.034  0.004  0.480

band   8 # energy   22.93856926 # occ.  0.00000000

ion      s     py     pz     px    dxy    dyz    dz2    dxz    dx2    tot
  1  0.006  0.009  0.096  0.005  0.004  0.136  0.008  0.088  0.002  0.354

band   9 # energy   25.40802926 # occ.  0.00000000

ion      s     py     pz     px    dxy    dyz    dz2    dxz    dx2    tot
  1  0.001  0.043  0.210  0.004  0.034  0.001  0.003  0.046  0.002  0.346


 k-point   16 :    0.31250000 0.31250000 0.06250000     weight = 0.01171875

band   1 # energy   -1.01268161 # occ.  2.00000000

ion      s     py     pz     px    dxy    dyz    dz2    dxz    dx2    tot
  1  0.334  0.001  0.083  0.001  0.003  0.004  0.278  0.004  0.000  0.708

band   2 # energy    0.05119772 # occ.  2.00000000

ion      s     py     pz     px    dxy    dyz    dz2    dxz    dx2    tot
  1  0.001  0.001  0.000  0.001  0.879  0.003  0.002  0.003  0.000  0.890

band   3 # energy    2.17937158 # occ.  2.00000000

ion      s     py     pz     px    dxy    dyz    dz2    dxz    dx2    tot
  1  0.101  0.001  0.058  0.001  0.003  0.104  0.493  0.104  0.000  0.865

band   4 # energy    3.05076862 # occ.  2.00000000

ion      s     py     pz     px    dxy    dyz    dz2    dxz    dx2    tot
  1  0.000  0.007  0.000  0.007  0.000  0.400  0.000  0.400  0.132  0.945

band   5 # energy    3.47203868 # occ.  2.00000000

ion      s     py     pz     px    dxy    dyz    dz2    dxz    dx2    tot
  1  0.044  0.008  0.028  0.008  0.005  0.354  0.118  0.354  0.000  0.919

band   6 # energy    4.00140511 # occ.  2.00000000

ion      s     py     pz     px    dxy    dyz    dz2    dxz    dx2    tot
  1  0.000  0.001  0.000  0.001  0.000  0.066  0.000  0.066  0.840  0.974

band   7 # energy   20.00091871 # occ.  0.00000000

ion      s     py     pz     px    dxy    dyz    dz2    dxz    dx2    tot
  1  0.084  0.173  0.055  0.173  0.021  0.060  0.003  0.060  0.000  0.629

band   8 # energy   21.25970875 # occ.  0.00000000
