----- GAMESS execution script 'rungms' -----
This job is running on host d12chas536.crc.nd.edu
under operating system Linux at Wed Oct 9 10:27:31 EDT 2019
SGE has assigned the following compute nodes to this run:
Available scratch disk space (Kbyte units) at beginning of the job is
Filesystem      1K-blocks     Used  Available Use% Mounted on
/dev/sda2      1949705068 53203616 1896501452   3% /
GAMESS temporary binary files will be written to /tmp/478642.1.debug
GAMESS supplementary output files will be written to /afs/crc.nd.edu/user/w/wschnei1/scr
Copying input file qnr-1.inp to your run's scratch directory...
reading your own /afs/crc.nd.edu/user/w/wschnei1/.gmsrc

 Distributed Data Interface kickoff program.
 Initiating 1 compute processes on 1 nodes to run the following command:
 /afs/crc.nd.edu/x86_64_linux/g/gamess/nov-2017/gamess/gamess.00.x qnr-1 

          ******************************************************
          *         GAMESS VERSION = 11 NOV 2017 (R3)         *
          *             FROM IOWA STATE UNIVERSITY             *
          * M.W.SCHMIDT, K.K.BALDRIDGE, J.A.BOATZ, S.T.ELBERT, *
          *   M.S.GORDON, J.H.JENSEN, S.KOSEKI, N.MATSUNAGA,   *
          *          K.A.NGUYEN, S.J.SU, T.L.WINDUS,           *
          *       TOGETHER WITH M.DUPUIS, J.A.MONTGOMERY       *
          *         J.COMPUT.CHEM.  14, 1347-1363(1993)        *
          **************** 64 BIT INTEL VERSION ****************

  SINCE 1993, STUDENTS AND POSTDOCS WORKING AT IOWA STATE UNIVERSITY
  AND ALSO IN THEIR VARIOUS JOBS AFTER LEAVING ISU HAVE MADE IMPORTANT
  CONTRIBUTIONS TO THE CODE:
     IVANA ADAMOVIC, CHRISTINE AIKENS, YURI ALEXEEV, POOJA ARORA,
     ANDREY ASADCHEV, ROB BELL, PRADIPTA BANDYOPADHYAY, JONATHAN BENTZ,
     BRETT BODE, KURT BRORSEN, CALEB CARLIN, GALINA CHABAN, WEI CHEN,
     CHEOL HO CHOI, PAUL DAY, ALBERT DEFUSCO, NUWAN DESILVA, TIM DUDLEY,
     DMITRI FEDOROV, ALEX FINDLATER, GRAHAM FLETCHER, MARK FREITAG,
     KURT GLAESEMANN, ANASTASIA GUININA,
     DAN KEMP, GRANT MERRILL, NORIYUKI MINEZAWA, JONATHAN MULLIN,
     TAKESHI NAGATA, SEAN NEDD, HEATHER NETZLOFF, BOSILJKA NJEGIC, RYAN OLSON,
     MIKE PAK, BUU PHAM,
     SPENCER PRUITT, LUKE ROSKOP, JIM SHOEMAKER, LYUDMILA SLIPCHENKO,
     TONY SMITH, SAROM SOK LEANG, JIE SONG, TETSUYA TAKETSUGU, SIMON WEBB,
     PENG XU, SOOHAENG YOO, FEDERICO ZAHARIEV

  ADDITIONAL CODE HAS BEEN PROVIDED BY COLLABORATORS IN OTHER GROUPS:
     IOWA STATE UNIVERSITY:
          JOE IVANIC, AARON WEST, LAIMUTIS BYTAUTAS, KLAUS RUEDENBERG
     UNIVERSITY OF TOKYO: KIMIHIKO HIRAO, TAKAHITO NAKAJIMA,
          TAKAO TSUNEDA, MUNEAKI KAMIYA, SUSUMU YANAGISAWA,
          KIYOSHI YAGI, MAHITO CHIBA, SEIKEN TOKURA, NAOAKI KAWAKAMI
     UNIVERSITY OF AARHUS: FRANK JENSEN
     UNIVERSITY OF IOWA: VISVALDAS KAIRYS, HUI LI
     NATIONAL INST. OF STANDARDS AND TECHNOLOGY: WALT STEVENS, DAVID GARMER
     UNIVERSITY OF PISA: BENEDETTA MENNUCCI, JACOPO TOMASI
     UNIVERSITY OF MEMPHIS: HENRY KURTZ, PRAKASHAN KORAMBATH
     UNIVERSITY OF ALBERTA: TOBY ZENG, MARIUSZ KLOBUKOWSKI
     UNIVERSITY OF NEW ENGLAND: MARK SPACKMAN
     MIE UNIVERSITY: HIROAKI UMEDA
     NAT. INST. OF ADVANCED INDUSTRIAL SCIENCE AND TECHNOLOGY: KAZUO KITAURA
     MICHIGAN STATE UNIVERSITY:
          KAROL KOWALSKI, MARTA WLOCH, JEFFREY GOUR, JESSE LUTZ,
          WEI LI, PIOTR PIECUCH
     UNIVERSITY OF SILESIA: MONIKA MUSIAL, STANISLAW KUCHARSKI
     FACULTES UNIVERSITAIRES NOTRE-DAME DE LA PAIX:
          OLIVIER QUINET, BENOIT CHAMPAGNE
     UNIVERSITY OF CALIFORNIA - SANTA BARBARA: BERNARD KIRTMAN
     INSTITUTE FOR MOLECULAR SCIENCE:
          KAZUYA ISHIMURA, MICHIO KATOUDA, AND SHIGERU NAGASE
     UNIVERSITY OF NOTRE DAME: ANNA POMOGAEVA, DAN CHIPMAN
     KYUSHU UNIVERSITY:
          HARUYUKI NAKANO,
          FENG LONG GU, JACEK KORCHOWIEC, MARCIN MAKOWSKI, AND YURIKO AOKI,
          HIROTOSHI MORI AND EISAKU MIYOSHI
     PENNSYLVANIA STATE UNIVERSITY:
          TZVETELIN IORDANOV, CHET SWALINA, JONATHAN SKONE,
          SHARON HAMMES-SCHIFFER
     WASEDA UNIVERSITY:
          MASATO KOBAYASHI, TOMOKO AKAMA, TSUGUKI TOUMA,
          TAKESHI YOSHIKAWA, YASUHIRO IKABATA, JUNJI SEINO,
          YUYA NAKAJIMA, HIROMI NAKAI
     NANJING UNIVERSITY: SHUHUA LI
     UNIVERSITY OF NEBRASKA:
          PEIFENG SU, DEJUN SI, NANDUN THELLAMUREGE, YALI WANG, HUI LI
     UNIVERSITY OF ZURICH: ROBERTO PEVERATI, KIM BALDRIDGE
     N. COPERNICUS UNIVERSITY AND JACKSON STATE UNIVERSITY:
          MARIA BARYSZ
     UNIVERSITY OF COPENHAGEN: Jimmy Kromann, CASPER STEINMANN
     TOKYO INSTITUTE OF TECHNOLOGY: HIROYA NAKATA
     NAGOYA UNIVERSITY: YOSHIO NISHIMOTO, STEPHAN IRLE
     MOSCOW STATE UNIVERSITY: VLADIMIR MIRONOV

 EXECUTION OF GAMESS BEGUN Wed Oct  9 10:27:32 2019

            ECHO OF THE FIRST FEW INPUT CARDS -
 INPUT CARD> $CONTRL SCFTYP=RHF DFTTYP=PBE RUNTYP=OPTIMIZE COORD=ZMT NZVAR=18 ISPHER=1 $END 
 INPUT CARD> $STATPT METHOD=NR $END                                                         
 INPUT CARD> $BASIS GBASIS=PCseg-1 $END                                                     
 INPUT CARD> $DATA                                                                          
 INPUT CARD>FCH2CH2F zmatrix optimization near saddle point, no hessian                     
 INPUT CARD>C1                                                                              
 INPUT CARD> C                                                                              
 INPUT CARD> C      1   1.5256029                                                           
 INPUT CARD> F      2   1.4018052  1   110.3919125                                          
 INPUT CARD> H      2   1.1066523  1   112.5759655  3   119.5903058  0                      
 INPUT CARD> H      2   1.1070172  1   108.5521191  3  -119.1579857  0                      
 INPUT CARD> F      1   1.4018888  2   110.3079213  3   120.0000000  0                      
 INPUT CARD> H      1   1.1065092  2   112.5372024  6   119.5247291  0                      
 INPUT CARD> H      1   1.1069911  2   108.5976341  6  -119.1645584  0                      
 INPUT CARD> $END                                                                           
 INPUT CARD>                                                                                
    1000000 WORDS OF MEMORY AVAILABLE

     BASIS OPTIONS
     -------------
     GBASIS=PCSEG-1      IGAUSS=       0      POLAR=NONE    
     NDFUNC=       0     NFFUNC=       0     DIFFSP=       F
     NPFUNC=       0      DIFFS=       F     BASNAM=        


     RUN TITLE
     ---------
 FCH2CH2F zmatrix optimization near saddle point, no hessian                     

 THE POINT GROUP OF THE MOLECULE IS C1      
 THE ORDER OF THE PRINCIPAL AXIS IS     0

 YOUR FULLY SUBSTITUTED Z-MATRIX IS
 C   
 C      1   1.5256029
 F      2   1.4018052  1  110.3919
 H      2   1.1066523  1  112.5760  3  119.5903  0
 H      2   1.1070172  1  108.5521  3 -119.1580  0
 F      1   1.4018888  2  110.3079  3  120.0000  0
 H      1   1.1065092  2  112.5372  6  119.5247  0
 H      1   1.1069911  2  108.5976  6 -119.1646  0

 THE MOMENTS OF INERTIA ARE (AMU-ANGSTROM**2)
 IXX=    21.269   IYY=   129.066   IZZ=   129.579

 ATOM      ATOMIC                      COORDINATES (BOHR)
           CHARGE         X                   Y                   Z
 C           6.0    -1.1439040992        0.8907287673        0.6712276583
 C           6.0     1.1428545199       -0.8646379208        0.7020038356
 F           9.0     3.1844184277        0.2568818346       -0.5595658572
 H           1.0     1.7881971622       -1.3085276478        2.6410508616
 H           1.0     0.6337974196       -2.6382332676       -0.2836500542
 F           9.0    -3.1835598606       -0.2777340540       -0.5505267641
 H           1.0    -1.7892484580        1.4000051405        2.5938419853
 H           1.0    -0.6364337185        2.6291794579       -0.3758395932

          INTERNUCLEAR DISTANCES (ANGS.)
          ------------------------------

                1 C          2 C          3 F          4 H          5 H     

   1 C       0.0000000    1.5256029 *  2.4047593 *  2.2019211 *  2.1511942 *
   2 C       1.5256029 *  0.0000000    1.4018052 *  1.1066523 *  1.1070172 *
   3 F       2.4047593 *  1.4018052 *  0.0000000    2.0250202 *  2.0469988 *
   4 H       2.2019211 *  1.1066523 *  2.0250202 *  0.0000000    1.8065519 *
   5 H       2.1511942 *  1.1070172 *  2.0469988 *  1.8065519 *  0.0000000  
   6 F       1.4018888 *  2.4036038 *  3.3816473    3.1736111    2.3792621 *
   7 H       1.1065092 *  2.2013320 *  3.1745375    2.3746145 *  2.9204871 *
   8 H       1.1069911 *  2.1517659 *  2.3819127 *  2.9218061 *  2.8677122 *

                6 F          7 H          8 H     

   1 C       1.4018888 *  1.1065092 *  1.1069911 *
   2 C       2.4036038 *  2.2013320 *  2.1517659 *
   3 F       3.3816473    3.1745375    2.3819127 *
   4 H       3.1736111    2.3746145 *  2.9218061 *
   5 H       2.3792621 *  2.9204871 *  2.8677122 *
   6 F       0.0000000    2.0251640 *  2.0473425 *
   7 H       2.0251640 *  0.0000000    1.8068796 *
   8 H       2.0473425 *  1.8068796 *  0.0000000  

  * ... LESS THAN  3.000


     ATOMIC BASIS SET
     ----------------
 THE CONTRACTED PRIMITIVE FUNCTIONS HAVE BEEN UNNORMALIZED
 THE CONTRACTED BASIS FUNCTIONS ARE NOW NORMALIZED TO UNITY

  SHELL TYPE  PRIMITIVE        EXPONENT          CONTRACTION COEFFICIENT(S)

 C         

      1   S       1          1243.2000000    0.005630097702
      1   S       2           187.1450000    0.041950603854
      1   S       3            42.5126000    0.184664360492
      1   S       4            11.7393000    0.466557421368
      1   S       5             3.5054800    0.448234778316

      2   S       6             5.3908900   -0.148114817444
      2   S       7             0.4933410    1.051981714281

      3   S       8             0.1497410    1.000000000000

      4   P       9             9.1805600    0.063992052045
      4   P      10             1.9365800    0.333521296407
      4   P      11             0.5262960    0.741161730513

      5   P      12             0.1363190    1.000000000000

      6   D      13             0.8000000    1.000000000000

 C         

      7   S      14          1243.2000000    0.005630097702
      7   S      15           187.1450000    0.041950603854
      7   S      16            42.5126000    0.184664360492
      7   S      17            11.7393000    0.466557421368
      7   S      18             3.5054800    0.448234778316

      8   S      19             5.3908900   -0.148114817444
      8   S      20             0.4933410    1.051981714281

      9   S      21             0.1497410    1.000000000000

     10   P      22             9.1805600    0.063992052045
     10   P      23             1.9365800    0.333521296407
     10   P      24             0.5262960    0.741161730513

     11   P      25             0.1363190    1.000000000000

     12   D      26             0.8000000    1.000000000000

 F         

     13   S      27          2931.5500000    0.005390132259
     13   S      28           441.1250000    0.040296704072
     13   S      29           100.2320000    0.180202178717
     13   S      30            27.8655000    0.465064284210
     13   S      31             8.4447000    0.452433138251

     14   S      32            13.6123000   -0.151660908297
     14   S      33             1.2612200    1.053515343452

     15   S      34             0.3708000    1.000000000000

     16   P      35            21.9305000    0.070356827475
     16   P      36             4.7855200    0.356742371235
     16   P      37             1.2837800    0.719732016372

     17   P      38             0.3115580    1.000000000000

     18   D      39             1.1000000    1.000000000000

 H         

     19   S      40            12.2518000    0.037217389296
     19   S      41             1.8687100    0.253808206955
     19   S      42             0.4182080    0.797386763917

     20   S      43             0.1061000    1.000000000000

     21   P      44             1.0000000    1.000000000000

 H         

     22   S      45            12.2518000    0.037217389296
     22   S      46             1.8687100    0.253808206955
     22   S      47             0.4182080    0.797386763917

     23   S      48             0.1061000    1.000000000000

     24   P      49             1.0000000    1.000000000000

 F         

     25   S      50          2931.5500000    0.005390132259
     25   S      51           441.1250000    0.040296704072
     25   S      52           100.2320000    0.180202178717
     25   S      53            27.8655000    0.465064284210
     25   S      54             8.4447000    0.452433138251

     26   S      55            13.6123000   -0.151660908297
     26   S      56             1.2612200    1.053515343452

     27   S      57             0.3708000    1.000000000000

     28   P      58            21.9305000    0.070356827475
     28   P      59             4.7855200    0.356742371235
     28   P      60             1.2837800    0.719732016372

     29   P      61             0.3115580    1.000000000000

     30   D      62             1.1000000    1.000000000000

 H         

     31   S      63            12.2518000    0.037217389296
     31   S      64             1.8687100    0.253808206955
     31   S      65             0.4182080    0.797386763917

     32   S      66             0.1061000    1.000000000000

     33   P      67             1.0000000    1.000000000000

 H         

     34   S      68            12.2518000    0.037217389296
     34   S      69             1.8687100    0.253808206955
     34   S      70             0.4182080    0.797386763917

     35   S      71             0.1061000    1.000000000000

     36   P      72             1.0000000    1.000000000000

 TOTAL NUMBER OF BASIS SET SHELLS             =   36
 NUMBER OF CARTESIAN GAUSSIAN BASIS FUNCTIONS =   80
 NOTE: THIS RUN WILL RESTRICT THE MO VARIATION SPACE TO SPHERICAL HARMONICS.
 THE NUMBER OF ORBITALS KEPT IN THE VARIATIONAL SPACE WILL BE PRINTED LATER.
 NUMBER OF ELECTRONS                          =   34
 CHARGE OF MOLECULE                           =    0
 SPIN MULTIPLICITY                            =    1
 NUMBER OF OCCUPIED ORBITALS (ALPHA)          =   17
 NUMBER OF OCCUPIED ORBITALS (BETA )          =   17
 TOTAL NUMBER OF ATOMS                        =    8
 THE NUCLEAR REPULSION ENERGY IS      124.7271028766

     LEBEDEV GRID-BASED DFT OPTIONS
     ------------------------------
     DFTTYP=PBE     
     NRAD  =      96     NLEB  =     302
     NRAD0 =      24     NLEB0 =     110
     SWOFF =    5.00E-03 (PURE SCF -> DFT)
     SWITCH=    3.00E-04 (COARSE -> TIGHT GRID)
     THRESH=    0.00E+00 GTHRE=    1.00E+00

 GRIMME'S EMPIRICAL DISPERSION CORRECTION= F

     $CONTRL OPTIONS
     ---------------
 SCFTYP=RHF          RUNTYP=OPTIMIZE     EXETYP=RUN     
 MPLEVL=       0     CITYP =NONE         CCTYP =NONE         VBTYP =NONE    
 DFTTYP=PBE          TDDFT =NONE    
 MULT  =       1     ICHARG=       0     NZVAR =      18     COORD =ZMT     
 PP    =NONE         RELWFN=NONE         LOCAL =NONE         NUMGRD=       F
 ISPHER=       1     NOSYM =       0     MAXIT =      30     UNITS =ANGS    
 PLTORB=       F     MOLPLT=       F     AIMPAC=       F     FRIEND=        
 NPRINT=       7     IREST =       0     GEOM  =INPUT   
 NORMF =       0     NORMP =       0     ITOL  =      20     ICUT  =       9
 INTTYP=BEST         GRDTYP=BEST         QMTTOL= 1.0E-06

     $SYSTEM OPTIONS
     ---------------
  REPLICATED MEMORY=     1000000 WORDS (ON EVERY NODE).
 DISTRIBUTED MEMDDI=           0 MILLION WORDS IN AGGREGATE,
 MEMDDI DISTRIBUTED OVER   1 PROCESSORS IS           0 WORDS/PROCESSOR.
 TOTAL MEMORY REQUESTED ON EACH PROCESSOR=     1000000 WORDS.
 TIMLIM=      525600.00 MINUTES, OR     365.0 DAYS.
 PARALL= F  BALTYP=  DLB     KDIAG=    0  COREFL= F
 MXSEQ2=     300 MXSEQ3=     150  mem10=         0

          ----------------
          PROPERTIES INPUT
          ----------------

     MOMENTS            FIELD           POTENTIAL          DENSITY
 IEMOM =       1   IEFLD =       0   IEPOT =       0   IEDEN =       0
 WHERE =COMASS     WHERE =NUCLEI     WHERE =NUCLEI     WHERE =NUCLEI  
 OUTPUT=BOTH       OUTPUT=BOTH       OUTPUT=BOTH       OUTPUT=BOTH    
 IEMINT=       0   IEFINT=       0                     IEDINT=       0
                                                       MORB  =       0
          EXTRAPOLATION IN EFFECT
          DIIS IN EFFECT
 ORBITAL PRINTING OPTION: NPREO=     1    80     2     1

     -------------------------------
     INTEGRAL TRANSFORMATION OPTIONS
     -------------------------------
     NWORD  =            0
     CUTOFF = 1.0E-09     MPTRAN =       0
     DIRTRF =       F     AOINTS =DUP     

          ----------------------
          INTEGRAL INPUT OPTIONS
          ----------------------
 NOPK  =       1 NORDER=       0 SCHWRZ=       T

   --- ENCODED Z MATRIX ---
 COORD  TYPE   I   J   K   L   M   N
    1      1    2   1
    2      1    3   2
    3      2    3   2   1
    4      1    4   2
    5      2    4   2   1
    6      3    4   2   1   3
    7      1    5   2
    8      2    5   2   1
    9      3    5   2   1   3
   10      1    6   1
   11      2    6   1   2
   12      3    6   1   2   3
   13      1    7   1
   14      2    7   1   2
   15      3    7   1   2   6
   16      1    8   1
   17      2    8   1   2
   18      3    8   1   2   6

 THE DETERMINANT OF THE G MATRIX IS 10**(   -12)


                     --------------------
                     INTERNAL COORDINATES
                     --------------------

                 - - ATOMS - -         COORDINATE      COORDINATE
 NO.   TYPE    I  J  K  L  M  N        (BOHR,RAD)       (ANG,DEG)
 ----------------------------------------------------------------
   1 STRETCH   2  1                     2.8829714       1.5256029
   2 STRETCH   3  2                     2.6490277       1.4018052
   3 BEND      3  2  1                  1.9267023     110.3919125
   4 STRETCH   4  2                     2.0912696       1.1066523
   5 BEND      4  2  1                  1.9648213     112.5759655
   6 TORSION   4  2  1  3               2.0872446     119.5903058
   7 STRETCH   5  2                     2.0919592       1.1070172
   8 BEND      5  2  1                  1.8945919     108.5521191
   9 TORSION   5  2  1  3              -2.0796992    -119.1579857
  10 STRETCH   6  1                     2.6491857       1.4018888
  11 BEND      6  1  2                  1.9252364     110.3079213
  12 TORSION   6  1  2  3               2.0943951     120.0000000
  13 STRETCH   7  1                     2.0909992       1.1065092
  14 BEND      7  1  2                  1.9641447     112.5372024
  15 TORSION   7  1  2  6               2.0861001     119.5247291
  16 STRETCH   8  1                     2.0919098       1.1069911
  17 BEND      8  1  2                  1.8953863     108.5976341
  18 TORSION   8  1  2  6              -2.0798139    -119.1645584

     ------------------------------------------
     THE POINT GROUP IS C1 , NAXIS= 0, ORDER= 1
     ------------------------------------------

 -- VARIATIONAL SPACE WILL BE RESTRICTED TO PURE SPHERICAL HARMONICS ONLY --
 AFTER EXCLUDING CONTAMINANT COMBINATIONS FROM THE CARTESIAN GAUSSIAN BASIS
 SET, THE NUMBER OF SPHERICAL HARMONICS KEPT IN THE VARIATION SPACE IS   76

     DIMENSIONS OF THE SYMMETRY SUBSPACES ARE
 A   =   76

 ..... DONE SETTING UP THE RUN .....
 STEP CPU TIME =     0.05 TOTAL CPU TIME =          0.1 (      0.0 MIN)
 TOTAL WALL CLOCK TIME=          0.3 SECONDS, CPU UTILIZATION IS    15.15%


          -----------------------------
          STATIONARY POINT LOCATION RUN
          -----------------------------

 OBTAINING INITIAL HESSIAN, HESS=GUESS   
 DIAGONAL GUESS HESSIAN IN INTERNAL COORDS IS
     1  0.3703     2  0.3256     3  0.2361     4  0.3353     5  0.2234
     6  0.2500     7  0.3351     8  0.2233     9  0.2500    10  0.3255
    11  0.2361    12  0.2500    13  0.3354    14  0.2234    15  0.2500
    16  0.3351    17  0.2233    18  0.2500

          PARAMETERS CONTROLLING GEOMETRY SEARCH ARE
          METHOD =NR                  UPHESS =POWELL  
          NNEG   =         0          NFRZ   =         0
          NSTEP  =        50          IFOLOW =         1
          HESS   =GUESS               RESTAR =         F
          IHREP  =         0          HSSEND =         F
          NPRT   =         0          NPUN   =         0
          OPTTOL = 1.000E-04          RMIN   = 1.500E-03
          RMAX   = 1.000E-01          RLIM   = 7.000E-02
          DXMAX  = 3.000E-01          PURIFY =         F
          MOVIE  =         F          TRUPD  =         T
          TRMAX  = 5.000E-01          TRMIN  = 5.000E-02
          ITBMAT =         5          STPT   =         F
          STSTEP = 1.000E-02          PROJCT=          T

 BEGINNING GEOMETRY SEARCH POINT NSERCH=   0 ...

 COORDINATES OF ALL ATOMS ARE (ANGS)
   ATOM   CHARGE       X              Y              Z
 ------------------------------------------------------------
 C           6.0  -0.6053280246   0.4713533989   0.3551984058
 C           6.0   0.6047726111  -0.4575467165   0.3714844587
 F           9.0   1.6851217840   0.1359360226  -0.2961095211
 H           1.0   0.9462732554  -0.6924430612   1.3975840300
 H           1.0   0.3353911751  -1.3960930234  -0.1501011554
 F           9.0  -1.6846674498  -0.1469705427  -0.2913262387
 H           1.0  -0.9468295772   0.7408508692   1.3726021668
 H           1.0  -0.3367862445   1.3913019533  -0.1988857621


                     --------------------
                     INTERNAL COORDINATES
                     --------------------

                 - - ATOMS - -         COORDINATE      COORDINATE
 NO.   TYPE    I  J  K  L  M  N        (BOHR,RAD)       (ANG,DEG)
 ----------------------------------------------------------------
   1 STRETCH   2  1                     2.8829714       1.5256029
   2 STRETCH   3  2                     2.6490277       1.4018052
   3 BEND      3  2  1                  1.9267023     110.3919125
   4 STRETCH   4  2                     2.0912696       1.1066523
   5 BEND      4  2  1                  1.9648213     112.5759655
   6 TORSION   4  2  1  3               2.0872446     119.5903058
   7 STRETCH   5  2                     2.0919592       1.1070172
   8 BEND      5  2  1                  1.8945919     108.5521191
   9 TORSION   5  2  1  3              -2.0796992    -119.1579857
  10 STRETCH   6  1                     2.6491857       1.4018888
  11 BEND      6  1  2                  1.9252364     110.3079213
  12 TORSION   6  1  2  3               2.0943951     120.0000000
  13 STRETCH   7  1                     2.0909992       1.1065092
  14 BEND      7  1  2                  1.9641447     112.5372024
  15 TORSION   7  1  2  6               2.0861001     119.5247291
  16 STRETCH   8  1                     2.0919098       1.1069911
  17 BEND      8  1  2                  1.8953863     108.5976341
  18 TORSION   8  1  2  6              -2.0798139    -119.1645584

 THE CURRENT FULLY SUBSTITUTED Z-MATRIX IS
 C   
 C      1   1.5256029
 F      2   1.4018052  1   110.3919125
 H      2   1.1066523  1   112.5759655  3   119.5903058  0
 H      2   1.1070172  1   108.5521191  3  -119.1579857  0
 F      1   1.4018888  2   110.3079213  3   120.0000000  0
 H      1   1.1065092  2   112.5372024  6   119.5247291  0
 H      1   1.1069911  2   108.5976341  6  -119.1645584  0

          ********************
          1 ELECTRON INTEGRALS
          ********************
 ...... END OF ONE-ELECTRON INTEGRALS ......
 STEP CPU TIME =     0.00 TOTAL CPU TIME =          0.1 (      0.0 MIN)
 TOTAL WALL CLOCK TIME=          0.4 SECONDS, CPU UTILIZATION IS    13.89%

          -------------
          GUESS OPTIONS
          -------------
          GUESS =HUCKEL            NORB  =       0          NORDER=       0
          MIX   =       F          PRTMO =       F          PUNMO =       F
          TOLZ  = 1.0E-08          TOLE  = 1.0E-05
          SYMDEN=       F          PURIFY=       F

 INITIAL GUESS ORBITALS GENERATED BY HUCKEL   ROUTINE.
 HUCKEL GUESS REQUIRES     54920 WORDS.

 STATISTICS FOR GENERATION OF SYMMETRY ORBITAL -Q- MATRIX
 NUMBER OF CARTESIAN ATOMIC ORBITALS=         80
 NUMBER OF SPHERICAL CONTAMINANTS DROPPED=     4
 NUMBER OF LINEARLY DEPENDENT MOS DROPPED=     0
 TOTAL NUMBER OF MOS IN VARIATION SPACE=      76

 SYMMETRIES FOR INITIAL GUESS ORBITALS FOLLOW.   BOTH SET(S).
    17 ORBITALS ARE OCCUPIED (    4 CORE ORBITALS).
     5=A        6=A        7=A        8=A        9=A       10=A       11=A   
    12=A       13=A       14=A       15=A       16=A       17=A       18=A   
    19=A       20=A       21=A       22=A       23=A       24=A       25=A   
    26=A       27=A   
 ...... END OF INITIAL ORBITAL SELECTION ......
 STEP CPU TIME =     0.02 TOTAL CPU TIME =          0.1 (      0.0 MIN)
 TOTAL WALL CLOCK TIME=          0.4 SECONDS, CPU UTILIZATION IS    16.28%

                    ----------------------
                    AO INTEGRAL TECHNOLOGY
                    ----------------------
     S,P,L SHELL ROTATED AXIS INTEGRALS, REPROGRAMMED BY
        KAZUYA ISHIMURA (IMS) AND JOSE SIERRA (SYNSTAR).
     S,P,D,L SHELL ROTATED AXIS INTEGRALS PROGRAMMED BY
        KAZUYA ISHIMURA (INSTITUTE FOR MOLECULAR SCIENCE).
     S,P,D,F,G SHELL TO TOTAL QUARTET ANGULAR MOMENTUM SUM 5,
        ERIC PROGRAM BY GRAHAM FLETCHER (ELORET AND NASA ADVANCED
        SUPERCOMPUTING DIVISION, AMES RESEARCH CENTER).
     S,P,D,F,G,L SHELL GENERAL RYS QUADRATURE PROGRAMMED BY
        MICHEL DUPUIS (PACIFIC NORTHWEST NATIONAL LABORATORY).

          --------------------
          2 ELECTRON INTEGRALS
          --------------------

 THE -PK- OPTION IS OFF, THE INTEGRALS ARE NOT IN SUPERMATRIX FORM.
 STORING   15000 INTEGRALS/RECORD ON DISK, USING 12 BYTES/INTEGRAL.
 TWO ELECTRON INTEGRAL EVALUATION REQUIRES   91062 WORDS OF MEMORY.
 SCHWARZ INEQUALITY OVERHEAD:      3217 INTEGRALS, T=        0.00
 II,JST,KST,LST =  1  1  1  1 NREC =         1 INTLOC =    1
 II,JST,KST,LST =  2  1  1  1 NREC =         1 INTLOC =    2
 II,JST,KST,LST =  3  1  1  1 NREC =         1 INTLOC =    7
 II,JST,KST,LST =  4  1  1  1 NREC =         1 INTLOC =   22
 II,JST,KST,LST =  5  1  1  1 NREC =         1 INTLOC =   67
 II,JST,KST,LST =  6  1  1  1 NREC =         1 INTLOC =  214
 II,JST,KST,LST =  7  1  1  1 NREC =         1 INTLOC = 1189
 II,JST,KST,LST =  8  1  1  1 NREC =         1 INTLOC = 3190
 II,JST,KST,LST =  9  1  1  1 NREC =         1 INTLOC = 5650
 II,JST,KST,LST = 10  1  1  1 NREC =         1 INTLOC = 8571
 II,JST,KST,LST = 11  1  1  1 NREC =         2 INTLOC = 5472
 II,JST,KST,LST = 12  1  1  1 NREC =         3 INTLOC = 8139
 II,JST,KST,LST = 13  1  1  1 NREC =         7 INTLOC = 6013
 II,JST,KST,LST = 14  1  1  1 NREC =         8 INTLOC = 4173
 II,JST,KST,LST = 15  1  1  1 NREC =         9 INTLOC = 4908
 II,JST,KST,LST = 16  1  1  1 NREC =        10 INTLOC = 7752
 II,JST,KST,LST = 17  1  1  1 NREC =        14 INTLOC = 9486
 II,JST,KST,LST = 18  1  1  1 NREC =        20 INTLOC =  427
 II,JST,KST,LST = 19  1  1  1 NREC =        34 INTLOC =10962
 II,JST,KST,LST = 20  1  1  1 NREC =        37 INTLOC =14143
 II,JST,KST,LST = 21  1  1  1 NREC =        41 INTLOC = 5679
 II,JST,KST,LST = 22  1  1  1 NREC =        52 INTLOC =14382
 II,JST,KST,LST = 23  1  1  1 NREC =        57 INTLOC = 5145
 II,JST,KST,LST = 24  1  1  1 NREC =        62 INTLOC =   25
 II,JST,KST,LST = 25  1  1  1 NREC =        77 INTLOC = 7435
 II,JST,KST,LST = 26  1  1  1 NREC =        80 INTLOC =11404
 II,JST,KST,LST = 27  1  1  1 NREC =        85 INTLOC = 1657
 II,JST,KST,LST = 28  1  1  1 NREC =        91 INTLOC = 3243
 II,JST,KST,LST = 29  1  1  1 NREC =       106 INTLOC = 5096
 II,JST,KST,LST = 30  1  1  1 NREC =       129 INTLOC = 5559
 II,JST,KST,LST = 31  1  1  1 NREC =       174 INTLOC = 8163
 II,JST,KST,LST = 32  1  1  1 NREC =       185 INTLOC = 5035
 II,JST,KST,LST = 33  1  1  1 NREC =       196 INTLOC =14421
 II,JST,KST,LST = 34  1  1  1 NREC =       229 INTLOC =11660
 II,JST,KST,LST = 35  1  1  1 NREC =       243 INTLOC = 3515
 II,JST,KST,LST = 36  1  1  1 NREC =       257 INTLOC = 7316
 SCHWARZ INEQUALITY TEST SKIPPED       18021 INTEGRAL BLOCKS.
 TOTAL NUMBER OF NONZERO TWO-ELECTRON INTEGRALS =             4497032
        300 INTEGRAL RECORDS WERE STORED ON DISK FILE  8.
  ...... END OF TWO-ELECTRON INTEGRALS .....
 STEP CPU TIME =     0.49 TOTAL CPU TIME =          0.6 (      0.0 MIN)
 TOTAL WALL CLOCK TIME=          1.0 SECONDS, CPU UTILIZATION IS    56.00%

          --------------------------
               R-PBE SCF CALCULATION
          --------------------------

     NUCLEAR ENERGY =       124.7271028766
     MAXIT =   30     NPUNCH=    2
     EXTRAP=T  DAMP=F  SHIFT=F  RSTRCT=F  DIIS=T  DEM=F  SOSCF=F
         DENSITY MATRIX CONVERGENCE THRESHOLD=  1.00E-05
     COARSE -> FINE DFT GRID SWITCH THRESHOLD=  3.00E-04 (SWITCH IN $DFT)
                   HF -> DFT SWITCH THRESHOLD=  5.00E-03 (SWOFF IN $DFT)
     MEMORY REQUIRED FOR RHF ITERS=    365468 WORDS.

 DFT CODE IS SWITCHING FROM THE FINE GRID NRAD= 96,  NLEB=  302
                      TO THE COARSE GRID NRAD0= 24, NLEB0=  110

     EXCHANGE FUNCTIONAL   =PBE       
     CORRELATION FUNCTIONAL=PBE       
     DFT THRESHOLD         =.172E-07
     GRID CHANGE THRESHOLD =.300E-03
 FOR AN EULER-MACLAURIN QUADRATURE USING  96 RADIAL POINTS:
 SMALLEST GAUSSIAN PRIMITIVE EXPONENT=        0.1061000000 OF TYPE -S-
 ON ATOM NUMBER   4 HAS RADIAL NORMALIZATION=  1.000000
  LARGEST GAUSSIAN PRIMITIVE EXPONENT=     2931.5500000000 OF TYPE -S-
 ON ATOM NUMBER   3 HAS RADIAL NORMALIZATION=  1.000000
 DFT IS SWITCHED OFF, PERFORMING PURE SCF UNTIL SWOFF THRESHOLD IS REACHED.

 ITER EX DEM     TOTAL ENERGY        E CHANGE  DENSITY CHANGE    DIIS ERROR
   1  0  0     -276.1213913256  -276.1213913256   0.175979653   0.745716002
          * * *   INITIATING DIIS PROCEDURE   * * *
   2  1  0     -276.7875889769    -0.6661976513   0.074159420   0.075853779
   3  2  0     -276.8280765974    -0.0404876205   0.036527794   0.034068485
   4  3  0     -276.8399689925    -0.0118923950   0.008852628   0.011340719
   5  4  0     -276.8407169626    -0.0007479701   0.001556457   0.001796208
 CONVERGED TO SWOFF, SO DFT CALCULATION IS NOW SWITCHED ON.
          * * *   INITIATING DIIS PROCEDURE   * * *
   6  5  0     -277.8981567950    -1.0574398324   0.090666721   0.085752263
   7  6  0     -277.9140988033    -0.0159420083   0.060863293   0.043167724
   8  7  0     -277.9128019022     0.0012969011   0.035422534   0.040335522
   9  8  0     -277.9260380063    -0.0132361041   0.004437953   0.004605795
  10  9  0     -277.9261953121    -0.0001573057   0.000784961   0.000922965
  11 10  0     -277.9261995949    -0.0000042829   0.000103334   0.000113916
 DFT CODE IS SWITCHING BACK TO THE FINE GRID
          * * *   INITIATING DIIS PROCEDURE   * * *
  12 11  0     -277.9333043943    -0.0071047993   0.002574445   0.003879805
  13 12  0     -277.9333851985    -0.0000808043   0.000624663   0.000429622
  14 13  0     -277.9333851405     0.0000000581   0.000406491   0.000470157
  15 14  0     -277.9333859721    -0.0000008316   0.000058468   0.000050063
  16 15  0     -277.9333859846    -0.0000000126   0.000029416   0.000021879
  17 16  0     -277.9333859898    -0.0000000052   0.000004516   0.000005553
  18 17  0     -277.9333859900    -0.0000000001   0.000000775   0.000000519

          -----------------
          DENSITY CONVERGED
          -----------------
     TIME TO FORM FOCK OPERATORS=       8.4 SECONDS (       0.5 SEC/ITER)
     TIME TO SOLVE SCF EQUATIONS=       0.1 SECONDS (       0.0 SEC/ITER)

 FINAL R-PBE ENERGY IS     -277.9333859900 AFTER  18 ITERATIONS
 DFT EXCHANGE + CORRELATION ENERGY =       -32.9230499148
 TOTAL ELECTRON NUMBER             =        33.9998088902

          ------------
          EIGENVECTORS
          ------------

                      1          2          3          4          5
                  -24.2351   -24.2351    -9.9707    -9.9706    -1.0994
                     A          A          A          A          A   
    1  C  1  S    0.000017  -0.000143   0.866272  -0.486075  -0.051598
    2  C  1  S    0.000082  -0.000629   0.031716  -0.018932   0.096048
    3  C  1  S   -0.001263   0.010184  -0.015826   0.015488   0.022835
    4  C  1  X   -0.000516  -0.000890  -0.001138  -0.000153  -0.041975
    5  C  1  Y    0.000088  -0.000436   0.000229   0.000572  -0.037351
    6  C  1  Z   -0.000164  -0.000506  -0.000284   0.000201  -0.034581
    7  C  1  X   -0.002484  -0.001531  -0.001581   0.003256  -0.001543
    8  C  1  Y   -0.000983  -0.002790  -0.000544  -0.002278  -0.008062
    9  C  1  Z    0.000622  -0.002466  -0.000298   0.000414  -0.002155
   10  C  1 XX   -0.000077   0.000128  -0.000323  -0.000357   0.007754
   11  C  1 YY    0.000081  -0.000081  -0.000092   0.000005  -0.003218
   12  C  1 ZZ   -0.000004  -0.000047   0.000415   0.000352  -0.004536
   13  C  1 XY    0.000108   0.000206   0.000720   0.000517   0.006368
   14  C  1 XZ    0.000064   0.000158  -0.000038   0.000003   0.008903
   15  C  1 YZ   -0.000054   0.000158   0.000033  -0.000040   0.005863
   16  C  2  S   -0.000116   0.000085   0.486242   0.866179  -0.051619
   17  C  2  S   -0.000506   0.000379   0.017209   0.032681   0.096088
   18  C  2  S    0.008236  -0.006121  -0.005434  -0.021462   0.022832
   19  C  2  X    0.001029   0.000011   0.001052   0.000463   0.042030
   20  C  2  Y    0.000316  -0.000286  -0.000499   0.000355   0.036026
   21  C  2  Z   -0.000533   0.000117  -0.000121  -0.000333  -0.035874
   22  C  2  X    0.002563   0.001406  -0.000345   0.003606   0.001544
   23  C  2  Y    0.002836  -0.000458   0.001652  -0.001676   0.007991
   24  C  2  Z   -0.001946   0.001770  -0.000095  -0.000448  -0.002434
   25  C  2 XX    0.000074  -0.000130  -0.000461   0.000139   0.007782
   26  C  2 YY   -0.000038   0.000118  -0.000076  -0.000058  -0.003601
   27  C  2 ZZ   -0.000036   0.000012   0.000537  -0.000081  -0.004180
   28  C  2 XY    0.000226  -0.000007   0.000884  -0.000066   0.006040
   29  C  2 XZ   -0.000177   0.000024  -0.000001   0.000025  -0.009132
   30  C  2 YZ   -0.000111   0.000122   0.000016  -0.000053  -0.005884
   31  F  3  S    0.960350  -0.252869   0.000036   0.000053  -0.166883
   32  F  3  S    0.032892  -0.008691   0.000157   0.000430   0.339541
   33  F  3  S   -0.016293   0.004494  -0.000568  -0.000549   0.346918
   34  F  3  X   -0.000879   0.000225   0.000200   0.000198  -0.055467
   35  F  3  Y   -0.000504   0.000119   0.000065   0.000078  -0.028532
   36  F  3  Z    0.000550  -0.000134  -0.000093  -0.000098   0.033288
   37  F  3  X    0.002759  -0.000950   0.000512   0.001185  -0.024906
   38  F  3  Y    0.001558  -0.000433   0.000535   0.000886  -0.013424
   39  F  3  Z   -0.001743   0.000373  -0.000507  -0.000891   0.015453
   40  F  3 XX   -0.000160   0.000038  -0.000164  -0.000457   0.003635
   41  F  3 YY    0.000121  -0.000003   0.000133   0.000239  -0.002059
   42  F  3 ZZ    0.000040  -0.000035   0.000031   0.000217  -0.001576
   43  F  3 XY   -0.000276   0.000117  -0.000440  -0.000556   0.004826
   44  F  3 XZ    0.000275  -0.000086   0.000389   0.000713  -0.005671
   45  F  3 YZ    0.000146  -0.000011   0.000232   0.000408  -0.003081
   46  H  4  S   -0.000872   0.000380  -0.000916  -0.000923   0.016684
   47  H  4  S   -0.000237  -0.000445   0.001820   0.002745   0.000321
   48  H  4  X   -0.000218  -0.000039   0.000080   0.000243  -0.000530
   49  H  4  Y   -0.000239   0.000026  -0.000117  -0.000220   0.000892
   50  H  4  Z    0.000215  -0.000096   0.000642   0.001083  -0.003830
   51  H  5  S   -0.000825   0.000641  -0.000755  -0.000850   0.019060
   52  H  5  S   -0.000093   0.000969   0.002547   0.002633   0.005448
   53  H  5  X   -0.000223   0.000152  -0.000340  -0.000302   0.000869
   54  H  5  Y   -0.000280   0.000056  -0.000456  -0.000947   0.004149
   55  H  5  Z    0.000173  -0.000043  -0.000293  -0.000496   0.001576
   56  F  6  S    0.252863   0.960352   0.000058  -0.000027  -0.166866
   57  F  6  S    0.008634   0.032907   0.000357  -0.000285   0.339504
   58  F  6  S   -0.004112  -0.016391  -0.000766   0.000172   0.346885
   59  F  6  X    0.000237   0.000875  -0.000274   0.000065   0.055402
   60  F  6  Y    0.000150   0.000517  -0.000101   0.000034   0.029763
   61  F  6  Z    0.000149   0.000527  -0.000127   0.000034   0.032265
   62  F  6  X   -0.000532  -0.002866  -0.001052   0.000746   0.024883
   63  F  6  Y   -0.000410  -0.001631  -0.000950   0.000494   0.013989
   64  F  6  Z   -0.000521  -0.001646  -0.000862   0.000479   0.014980
   65  F  6 XX   -0.000046  -0.000157  -0.000376   0.000304   0.003618
   66  F  6 YY    0.000053   0.000098   0.000211  -0.000121  -0.001856
   67  F  6 ZZ   -0.000007   0.000059   0.000165  -0.000183  -0.001762
   68  F  6 XY   -0.000037  -0.000308  -0.000691   0.000260   0.005032
   69  F  6 XZ   -0.000059  -0.000271  -0.000679   0.000397   0.005493
   70  F  6 YZ   -0.000066  -0.000135  -0.000415   0.000226   0.003102
   71  H  7  S   -0.000100  -0.000947  -0.001262   0.000311   0.016680
   72  H  7  S   -0.000505   0.000011   0.002987  -0.001396   0.000316
   73  H  7  X    0.000142   0.000170  -0.000195   0.000166   0.000530
   74  H  7  Y    0.000096   0.000230   0.000252  -0.000147  -0.001024
   75  H  7  Z    0.000019   0.000226   0.001104  -0.000585  -0.003797
   76  H  8  S    0.000153  -0.001034  -0.001089   0.000333   0.019031
   77  H  8  S    0.000799  -0.000554   0.003546  -0.000920   0.005428
   78  H  8  X   -0.000023   0.000269   0.000447  -0.000080  -0.000871
   79  H  8  Y    0.000091   0.000278   0.000865  -0.000561  -0.004090
   80  H  8  Z    0.000044   0.000163  -0.000539   0.000291   0.001718

                      6          7          8          9         10
                   -1.0932    -0.7005    -0.5819    -0.4677    -0.4668
                     A          A          A          A          A   
    1  C  1  S   -0.039028  -0.149691   0.125852  -0.002536   0.002774
    2  C  1  S    0.075804   0.308112  -0.274600  -0.001749   0.001309
    3  C  1  S   -0.007429   0.175365  -0.135544   0.018807  -0.038485
    4  C  1  X   -0.064512   0.097529   0.076004  -0.053450  -0.159035
    5  C  1  Y   -0.030092  -0.041687  -0.109853   0.038397  -0.227290
    6  C  1  Z   -0.031253   0.022595  -0.006516   0.292246   0.000215
    7  C  1  X   -0.015593   0.036711   0.008000  -0.037191  -0.027433
    8  C  1  Y    0.006203   0.000014  -0.045020  -0.007096  -0.086351
    9  C  1  Z   -0.004120   0.012822  -0.020626   0.114438   0.032915
   10  C  1 XX    0.004125   0.002265  -0.000497   0.001224  -0.002141
   11  C  1 YY   -0.002189   0.002148   0.004001  -0.002815   0.006376
   12  C  1 ZZ   -0.001936  -0.004413  -0.003505   0.001592  -0.004235
   13  C  1 XY    0.010193  -0.008776  -0.008530  -0.002380   0.007075
   14  C  1 XZ    0.009844  -0.000248  -0.000958  -0.001695   0.007011
   15  C  1 YZ    0.005248  -0.000324   0.000320  -0.007695   0.008779
   16  C  2  S    0.039010  -0.149647  -0.125885  -0.002555  -0.002695
   17  C  2  S   -0.075764   0.307994   0.274672  -0.001729  -0.001440
   18  C  2  S    0.007436   0.175485   0.135520   0.018917   0.038316
   19  C  2  X   -0.064600  -0.097564   0.075905   0.052675  -0.160048
   20  C  2  Y   -0.028878   0.042456  -0.109577  -0.029269  -0.226419
   21  C  2  Z    0.032277   0.021078   0.010320   0.293184   0.006534
   22  C  2  X   -0.015605  -0.036783   0.007906   0.037060  -0.027777
   23  C  2  Y    0.006340   0.000514  -0.044242   0.010604  -0.087293
   24  C  2  Z    0.003898   0.012803   0.022209   0.113966  -0.030354
   25  C  2 XX   -0.004150   0.002271   0.000506   0.001233   0.002097
   26  C  2 YY    0.002533   0.002155  -0.003975  -0.002360  -0.005774
   27  C  2 ZZ    0.001617  -0.004426   0.003469   0.001127   0.003678
   28  C  2 XY   -0.009828  -0.008761   0.008480  -0.002355  -0.006821
   29  C  2 XZ    0.010203   0.000550  -0.001251   0.001798   0.007271
   30  C  2 YZ    0.005207   0.000054   0.000621   0.007873   0.009137
   31  F  3  S    0.170168   0.060164   0.046892  -0.017368  -0.034951
   32  F  3  S   -0.345911  -0.130807  -0.102954   0.036148   0.073174
   33  F  3  S   -0.357529  -0.154297  -0.124470   0.055996   0.110149
   34  F  3  X    0.053583  -0.087644  -0.110813   0.214356   0.259538
   35  F  3  Y    0.028953  -0.026232  -0.121124   0.057454   0.009102
   36  F  3  Z   -0.033424   0.045352   0.092679   0.089508  -0.197468
   37  F  3  X    0.026202  -0.049002  -0.066895   0.131125   0.160489
   38  F  3  Y    0.012153  -0.018057  -0.073137   0.031936   0.004274
   39  F  3  Z   -0.015664   0.025722   0.056248   0.052992  -0.118686
   40  F  3 XX   -0.003486   0.003642   0.000365  -0.009482  -0.005876
   41  F  3 YY    0.002055  -0.002282   0.000069   0.000957   0.006464
   42  F  3 ZZ    0.001431  -0.001360  -0.000435   0.008525  -0.000588
   43  F  3 XY   -0.004722   0.002354   0.007175  -0.004267  -0.000076
   44  F  3 XZ    0.005596  -0.004054  -0.004765  -0.001265   0.009033
   45  F  3 YZ    0.002962  -0.001463  -0.004487  -0.002131   0.001779
   46  H  4  S   -0.015506   0.110593   0.156480   0.204211   0.007544
   47  H  4  S   -0.001799  -0.002653   0.006607   0.031411   0.014170
   48  H  4  X    0.000663  -0.004974  -0.003039  -0.004259  -0.002985
   49  H  4  Y   -0.001191   0.002581   0.000575   0.003506  -0.004545
   50  H  4  Z    0.003331  -0.009782  -0.012251  -0.007460  -0.000067
   51  H  5  S   -0.011941   0.107713   0.165225  -0.082475   0.158247
   52  H  5  S    0.003165  -0.011099   0.018515   0.007230   0.006941
   53  H  5  X   -0.001971   0.001697   0.004279   0.000765  -0.002039
   54  H  5  Y   -0.002304   0.009304   0.010209  -0.006581   0.005551
   55  H  5  Z   -0.001040   0.005699   0.007068   0.003589   0.005246
   56  F  6  S   -0.170184   0.060222  -0.046828  -0.017239   0.034991
   57  F  6  S    0.345939  -0.130938   0.102808   0.035883  -0.073262
   58  F  6  S    0.357576  -0.154441   0.124308   0.055562  -0.110281
   59  F  6  X    0.053530   0.087690  -0.110425  -0.213378   0.260341
   60  F  6  Y    0.030195   0.027928  -0.124483  -0.054664   0.016111
   61  F  6  Z    0.032393   0.044469  -0.088307   0.092345   0.196474
   62  F  6  X    0.026180   0.049042  -0.066658  -0.130541   0.161006
   63  F  6  Y    0.012736   0.019009  -0.075173  -0.030289   0.008459
   64  F  6  Z    0.015241   0.025115  -0.053613   0.054611   0.118137
   65  F  6 XX    0.003470   0.003641  -0.000338  -0.009454   0.005927
   66  F  6 YY   -0.001860  -0.002190  -0.000363   0.001056  -0.006362
   67  F  6 ZZ   -0.001610  -0.001451   0.000702   0.008398   0.000435
   68  F  6 XY    0.004927   0.002502  -0.007339  -0.004241   0.000409
   69  F  6 XZ    0.005423   0.003974  -0.004499   0.001449   0.009014
   70  F  6 YZ    0.002989   0.001503  -0.004463   0.002444   0.002048
   71  H  7  S    0.015515   0.110716  -0.156467   0.204415  -0.008577
   72  H  7  S    0.001798  -0.002670  -0.006614   0.031422  -0.014348
   73  H  7  X    0.000663   0.004980  -0.003037   0.004253  -0.002992
   74  H  7  Y   -0.001306  -0.002917   0.000992  -0.003778  -0.004535
   75  H  7  Z   -0.003290  -0.009697   0.012223  -0.007341   0.000268
   76  H  8  S    0.011959   0.107749  -0.165224  -0.083308  -0.158163
   77  H  8  S   -0.003164  -0.011068  -0.018497   0.007141  -0.007052
   78  H  8  X   -0.001963  -0.001686   0.004276  -0.000774  -0.002019
   79  H  8  Y   -0.002273  -0.009104   0.009960   0.006735   0.005343
   80  H  8  Z    0.001118   0.006021  -0.007421   0.003332  -0.005463

                     11         12         13         14         15
                   -0.4430    -0.4080    -0.4063    -0.3368    -0.3026
                     A          A          A          A          A   
    1  C  1  S   -0.004461   0.009505   0.010598   0.032936   0.001152
    2  C  1  S    0.004367  -0.012117  -0.019063  -0.069063  -0.005689
    3  C  1  S    0.021312  -0.043760  -0.041907  -0.145565   0.000783
    4  C  1  X    0.288035  -0.008348   0.026824  -0.059229   0.002478
    5  C  1  Y   -0.082464  -0.276456   0.001078  -0.028470   0.131768
    6  C  1  Z    0.034868   0.041944  -0.251833  -0.033303  -0.131554
    7  C  1  X    0.081012   0.021996   0.027593  -0.051679  -0.014748
    8  C  1  Y   -0.063030  -0.102391   0.013565   0.016390   0.049681
    9  C  1  Z    0.000320   0.031650  -0.094021  -0.015302  -0.032321
   10  C  1 XX   -0.010550   0.011204   0.000277   0.019338   0.000148
   11  C  1 YY    0.010278  -0.003016  -0.001663  -0.011026   0.013821
   12  C  1 ZZ    0.000271  -0.008188   0.001386  -0.008311  -0.013969
   13  C  1 XY   -0.011259   0.009524   0.002660  -0.005254   0.009374
   14  C  1 XZ   -0.009261   0.004100   0.019363   0.004356  -0.013753
   15  C  1 YZ   -0.002911   0.008351  -0.001867  -0.006969  -0.005203
   16  C  2  S   -0.004477   0.009664  -0.010450  -0.032998   0.001119
   17  C  2  S    0.004393  -0.012402   0.018898   0.069179  -0.005596
   18  C  2  S    0.021389  -0.044287   0.041229   0.145764   0.000766
   19  C  2  X   -0.287638   0.008116   0.026752  -0.059373  -0.002302
   20  C  2  Y    0.084347   0.277724   0.015035  -0.027356  -0.135938
   21  C  2  Z    0.031732   0.027499   0.252390   0.034385  -0.125844
   22  C  2  X   -0.080940  -0.022497   0.027207  -0.051676   0.014828
   23  C  2  Y    0.063284   0.103297   0.018832   0.016948  -0.050787
   24  C  2  Z   -0.001945   0.026373   0.094082   0.014679  -0.030317
   25  C  2 XX   -0.010570   0.011211  -0.000077  -0.019353   0.000097
   26  C  2 YY    0.010467  -0.003559   0.001498   0.010586   0.014048
   27  C  2 ZZ    0.000103  -0.007652  -0.001422   0.008766  -0.014145
   28  C  2 XY   -0.010870   0.009428  -0.001817   0.005404   0.009806
   29  C  2 XZ    0.009625  -0.004803   0.019379   0.004142   0.013428
   30  C  2 YZ    0.002468  -0.008507  -0.002164  -0.007064   0.003981
   31  F  3  S   -0.025709   0.008678  -0.007099  -0.000420   0.002955
   32  F  3  S    0.052714  -0.015722   0.013591  -0.001787  -0.009487
   33  F  3  S    0.077137  -0.024027   0.017563   0.004199  -0.007960
   34  F  3  X    0.127387  -0.203901   0.223530  -0.220514   0.130310
   35  F  3  Y    0.274419   0.128720   0.169971   0.371905   0.215354
   36  F  3  Z   -0.199531   0.210685   0.169419  -0.183927   0.329727
   37  F  3  X    0.080059  -0.124128   0.142374  -0.152978   0.082386
   38  F  3  Y    0.167423   0.081523   0.108929   0.251068   0.156055
   39  F  3  Z   -0.123195   0.135078   0.111321  -0.126055   0.232787
   40  F  3 XX    0.003880   0.005178  -0.007583   0.009461  -0.003233
   41  F  3 YY   -0.002616  -0.008735  -0.002253  -0.006352  -0.001370
   42  F  3 ZZ   -0.001264   0.003556   0.009835  -0.003109   0.004603
   43  F  3 XY   -0.008580  -0.003316  -0.007731  -0.004432  -0.004290
   44  F  3 XZ    0.005090  -0.008324  -0.003255   0.000398  -0.003688
   45  F  3 YZ    0.007451   0.000713  -0.001663   0.006469  -0.000553
   46  H  4  S   -0.048468  -0.042577   0.205857   0.077579  -0.105732
   47  H  4  S   -0.010000  -0.017642   0.062128   0.023848  -0.052860
   48  H  4  X   -0.004648   0.001764  -0.001695  -0.003934   0.004128
   49  H  4  Y    0.000282   0.006200   0.003047  -0.001074  -0.004871
   50  H  4  Z    0.004519   0.002524  -0.006283  -0.001868   0.000275
   51  H  5  S    0.000224  -0.204075  -0.089092   0.058697   0.196437
   52  H  5  S    0.024608  -0.055959  -0.025445  -0.012735   0.089425
   53  H  5  X   -0.006842  -0.005564  -0.002206   0.002703  -0.000468
   54  H  5  Y    0.000468  -0.004556  -0.005130   0.000484   0.003740
   55  H  5  Z   -0.000088  -0.005579   0.002997   0.003749   0.002985
   56  F  6  S   -0.025764   0.008520   0.007227   0.000423   0.002953
   57  F  6  S    0.052824  -0.015412  -0.013802   0.001780  -0.009480
   58  F  6  S    0.077317  -0.023626  -0.017942  -0.004245  -0.007935
   59  F  6  X   -0.127468   0.199425   0.226615  -0.221348  -0.130737
   60  F  6  Y   -0.281714  -0.123230   0.161748   0.378243  -0.204442
   61  F  6  Z   -0.190117   0.218148  -0.171094   0.169760   0.339520
   62  F  6  X   -0.080101   0.121283   0.144227  -0.153554  -0.082701
   63  F  6  Y   -0.171935  -0.078003   0.103574   0.255422  -0.148320
   64  F  6  Z   -0.117459   0.139887  -0.112396   0.116479   0.239812
   65  F  6 XX    0.003897   0.005022   0.007646  -0.009473  -0.003244
   66  F  6 YY   -0.003086  -0.008790   0.001994   0.006770  -0.001347
   67  F  6 ZZ   -0.000811   0.003768  -0.009639   0.002702   0.004591
   68  F  6 XY   -0.008750  -0.003115   0.007557   0.004419  -0.004176
   69  F  6 XZ   -0.004785   0.008489  -0.003361   0.000209   0.003862
   70  F  6 YZ   -0.007393  -0.000149  -0.002156   0.006319   0.000808
   71  H  7  S   -0.048276  -0.038567  -0.206542  -0.077374  -0.107056
   72  H  7  S   -0.009961  -0.016437  -0.062428  -0.023725  -0.053448
   73  H  7  X    0.004664  -0.001721  -0.001722  -0.003918  -0.004153
   74  H  7  Y   -0.000118  -0.006170   0.003138  -0.001011   0.004887
   75  H  7  Z    0.004520   0.002612   0.006227   0.001900   0.000129
   76  H  8  S    0.000431  -0.205697   0.085310  -0.058705   0.197384
   77  H  8  S    0.024568  -0.056407   0.024416   0.012688   0.089915
   78  H  8  X    0.006845   0.005596  -0.002094   0.002677   0.000473
   79  H  8  Y   -0.000467   0.004458  -0.005154   0.000350  -0.003660
   80  H  8  Z   -0.000057  -0.005681  -0.002918  -0.003753   0.003104

                     16         17         18         19         20
                   -0.2880    -0.2843     0.0181     0.0234     0.0578
                     A          A          A          A          A   
    1  C  1  S   -0.000773   0.022765   0.013843   0.051970   0.066066
    2  C  1  S    0.000066  -0.062171  -0.059063  -0.079768  -0.145983
    3  C  1  S    0.031900  -0.102160   0.269531  -0.878150  -0.809669
    4  C  1  X    0.076038  -0.197762   0.236067   0.031272   0.105497
    5  C  1  Y    0.063121   0.183578   0.191953  -0.126692  -0.076518
    6  C  1  Z   -0.181713   0.057879   0.108978  -0.208201   0.213818
    7  C  1  X    0.045387  -0.031849   0.452594   0.077970   0.112493
    8  C  1  Y    0.000408   0.077182   0.364988  -0.279828  -0.285283
    9  C  1  Z   -0.049219   0.017921   0.162794  -0.435328   0.489988
   10  C  1 XX    0.007016  -0.016062   0.028923  -0.004515   0.001699
   11  C  1 YY    0.006633   0.005532  -0.026627  -0.010133   0.009148
   12  C  1 ZZ   -0.013649   0.010530  -0.002296   0.014647  -0.010847
   13  C  1 XY    0.012812   0.012812   0.018978  -0.002847   0.019567
   14  C  1 XZ    0.000726  -0.002037   0.016122  -0.016679   0.025362
   15  C  1 YZ   -0.010974   0.006309   0.027909   0.008322  -0.014786
   16  C  2  S    0.000549   0.022810  -0.013562   0.051986   0.064602
   17  C  2  S    0.000558  -0.062252   0.058474  -0.079859  -0.143106
   18  C  2  S   -0.030934  -0.102453  -0.273127  -0.877007  -0.791384
   19  C  2  X    0.074113   0.198268   0.236032  -0.031911  -0.104279
   20  C  2  Y    0.072233  -0.180867   0.188004   0.118724   0.082504
   21  C  2  Z    0.179640   0.066161  -0.116062  -0.212188   0.210624
   22  C  2  X    0.044902   0.032088   0.452170  -0.079102  -0.109619
   23  C  2  Y    0.003322  -0.076414   0.359416   0.263179   0.297956
   24  C  2  Z    0.049279   0.021168  -0.176305  -0.444201   0.478973
   25  C  2 XX   -0.006871  -0.016113  -0.028979  -0.004445   0.001736
   26  C  2 YY   -0.007380   0.005061   0.028298  -0.010669   0.009985
   27  C  2 ZZ    0.014251   0.011052   0.000681   0.015113  -0.011721
   28  C  2 XY   -0.012962   0.012787  -0.018323  -0.002216   0.018592
   29  C  2 XZ    0.001060   0.001596   0.016834   0.016696  -0.026009
   30  C  2 YZ   -0.010099  -0.006199   0.026808  -0.007410   0.014050
   31  F  3  S    0.003238  -0.000029   0.048807   0.016000  -0.019423
   32  F  3  S   -0.009385  -0.003126  -0.093961  -0.034568   0.033999
   33  F  3  S   -0.012091   0.018251  -0.379286  -0.107014   0.174426
   34  F  3  X   -0.033870  -0.278850   0.171618   0.048991  -0.111295
   35  F  3  Y   -0.206501   0.272931   0.092343  -0.018694  -0.146640
   36  F  3  Z   -0.331936  -0.122625  -0.132299   0.031305   0.058683
   37  F  3  X   -0.031716  -0.198703   0.175565   0.053524  -0.111170
   38  F  3  Y   -0.141068   0.190481   0.085706  -0.030257  -0.154763
   39  F  3  Z   -0.231279  -0.080751  -0.125229   0.039294   0.044545
   40  F  3 XX    0.001050   0.003979   0.000484   0.002572  -0.004879
   41  F  3 YY    0.002433  -0.002798  -0.000406  -0.002092   0.002637
   42  F  3 ZZ   -0.003483  -0.001181  -0.000078  -0.000480   0.002242
   43  F  3 XY    0.001770  -0.001078   0.000883  -0.000315  -0.005729
   44  F  3 XZ    0.004013  -0.000286  -0.003568   0.004356   0.000156
   45  F  3 YZ   -0.000841   0.002262   0.002157   0.001474   0.003847
   46  H  4  S    0.203309   0.147536  -0.021341   0.103298  -0.107157
   47  H  4  S    0.093319   0.080624   0.038009   1.171874  -0.307965
   48  H  4  X   -0.001616   0.001413   0.012507   0.006622  -0.012292
   49  H  4  Y    0.003065  -0.003221   0.008805   0.000766   0.003859
   50  H  4  Z   -0.003124  -0.004474  -0.001227   0.018257   0.000120
   51  H  5  S   -0.186951   0.064598   0.151595  -0.012979   0.115560
   52  H  5  S   -0.082703   0.068653   0.651142   0.133355   1.201626
   53  H  5  X    0.000651   0.002442   0.011420  -0.001869  -0.008293
   54  H  5  Y   -0.005200  -0.001503  -0.006340   0.001620  -0.016660
   55  H  5  Z   -0.000009   0.003021  -0.013710  -0.009045  -0.000176
   56  F  6  S   -0.003276  -0.000058  -0.048790   0.016162  -0.019769
   57  F  6  S    0.009524  -0.003028   0.093883  -0.034855   0.034656
   58  F  6  S    0.012035   0.018328   0.379355  -0.108392   0.177157
   59  F  6  X   -0.035444   0.279029   0.171486  -0.049532   0.112807
   60  F  6  Y   -0.190893  -0.278418   0.097549   0.019354   0.149433
   61  F  6  Z    0.338214  -0.109539   0.129328   0.030203   0.054205
   62  F  6  X   -0.032932   0.198734   0.175445  -0.054145   0.112950
   63  F  6  Y   -0.130133  -0.194096   0.090762   0.031217   0.157532
   64  F  6  Z    0.235469  -0.071629   0.122512   0.037792   0.039952
   65  F  6 XX   -0.001068   0.003968  -0.000480   0.002572  -0.004850
   66  F  6 YY   -0.002453  -0.002956   0.000537  -0.002185   0.002344
   67  F  6 ZZ    0.003521  -0.001012  -0.000057  -0.000387   0.002505
   68  F  6 XY   -0.001586  -0.001062  -0.001018  -0.000452  -0.005773
   69  F  6 XZ    0.004053   0.000366  -0.003557  -0.004329   0.000032
   70  F  6 YZ   -0.000573  -0.002195   0.002129  -0.001419  -0.003897
   71  H  7  S   -0.204126   0.145378   0.021583   0.103323  -0.106013
   72  H  7  S   -0.093758   0.079628  -0.034222   1.172524  -0.296008
   73  H  7  X   -0.001576  -0.001443   0.012491  -0.006671   0.012271
   74  H  7  Y    0.003093   0.003102   0.008877  -0.000179  -0.003772
   75  H  7  Z    0.003065  -0.004551   0.000980   0.018279   0.000403
   76  H  8  S    0.184895   0.066488  -0.151422  -0.012442   0.116221
   77  H  8  S    0.081452   0.069415  -0.649718   0.136068   1.216701
   78  H  8  X    0.000688  -0.002457   0.011454   0.001850   0.008389
   79  H  8  Y   -0.005179   0.001549  -0.005846  -0.001918   0.016842
   80  H  8  Z    0.000141   0.002972   0.013910  -0.009040  -0.000826

                     21         22         23         24         25
                    0.0649     0.1042     0.1058     0.1698     0.3561
                     A          A          A          A          A   
    1  C  1  S    0.099809  -0.021675  -0.032966  -0.078954  -0.008145
    2  C  1  S   -0.192999   0.019446   0.104899   0.107373   0.135522
    3  C  1  S   -1.274454   0.629923   0.152057   1.824757   0.496934
    4  C  1  X    0.088038   0.027541  -0.264343   0.246868   0.289002
    5  C  1  Y   -0.066720  -0.142108  -0.231118  -0.281594  -0.323073
    6  C  1  Z    0.020963   0.284395   0.025543  -0.127849  -0.014045
    7  C  1  X    0.175779   0.245585  -0.723001   1.482872  -0.376701
    8  C  1  Y   -0.195132  -0.465340  -0.617119  -1.305040   1.085385
    9  C  1  Z    0.007997   0.906902   0.079689  -0.484668   0.056719
   10  C  1 XX    0.002733  -0.007060   0.005950  -0.020213   0.025037
   11  C  1 YY   -0.001963   0.006891  -0.011152  -0.008026   0.022272
   12  C  1 ZZ   -0.000769   0.000169   0.005203   0.028239  -0.047309
   13  C  1 XY    0.005276   0.014237  -0.012617   0.030981  -0.050029
   14  C  1 XZ    0.002299  -0.005140  -0.020072  -0.009670   0.010147
   15  C  1 YZ    0.008318  -0.001847  -0.006825  -0.013923   0.018136
   16  C  2  S   -0.100781   0.022639  -0.032527   0.078877  -0.007945
   17  C  2  S    0.195052  -0.022630   0.104822  -0.107217   0.134065
   18  C  2  S    1.287153  -0.633380   0.135037  -1.824413   0.499967
   19  C  2  X    0.089636   0.019219   0.264529   0.247292  -0.288694
   20  C  2  Y   -0.069020  -0.159277   0.227640  -0.276843   0.321176
   21  C  2  Z   -0.021737  -0.279871   0.008487   0.137659  -0.024510
   22  C  2  X    0.177280   0.223017   0.728899   1.484314   0.376117
   23  C  2  Y   -0.200681  -0.515671   0.605307  -1.285757  -1.080590
   24  C  2  Z   -0.008451  -0.891874   0.029147   0.529609   0.091342
   25  C  2 XX   -0.002786   0.006849   0.006032   0.020170   0.025202
   26  C  2 YY    0.002333  -0.006655  -0.010864   0.007102   0.020959
   27  C  2 ZZ    0.000454  -0.000194   0.004832  -0.027272  -0.046161
   28  C  2 XY   -0.005455  -0.014067  -0.012282  -0.031315  -0.050364
   29  C  2 XZ    0.002893  -0.005214   0.020379  -0.008520  -0.008419
   30  C  2 YZ    0.008025  -0.001857   0.007438  -0.015332  -0.020895
   31  F  3  S    0.028472   0.019497   0.056437  -0.007300  -0.007505
   32  F  3  S   -0.053550  -0.038934  -0.103420   0.003690   0.017506
   33  F  3  S   -0.228751  -0.154763  -0.498069   0.105178   0.067338
   34  F  3  X    0.131216   0.007468   0.128643  -0.106623  -0.066161
   35  F  3  Y    0.033461   0.033719   0.086662   0.063826   0.089256
   36  F  3  Z   -0.061342   0.025718  -0.100114   0.013115  -0.019687
   37  F  3  X    0.157241   0.028308   0.162546  -0.201802  -0.096158
   38  F  3  Y    0.058934   0.075698   0.091919   0.111057   0.134214
   39  F  3  Z   -0.074843   0.050779  -0.152023  -0.014449   0.006383
   40  F  3 XX   -0.001193  -0.000661  -0.001911  -0.007046   0.003569
   41  F  3 YY    0.002607   0.005136  -0.001644   0.008983   0.001358
   42  F  3 ZZ   -0.001414  -0.004475   0.003555  -0.001937  -0.004927
   43  F  3 XY    0.002227   0.000904   0.000753  -0.004581  -0.004804
   44  F  3 XZ   -0.002040   0.005927  -0.001899   0.002274  -0.003736
   45  F  3 YZ   -0.002859  -0.001610  -0.002484  -0.006642  -0.000774
   46  H  4  S   -0.069441   0.011470   0.052728  -0.073638  -0.228167
   47  H  4  S   -0.892023   1.319723  -0.486417  -0.968387  -0.021649
   48  H  4  X   -0.001473   0.010672   0.015498   0.002265   0.010978
   49  H  4  Y    0.006510  -0.009123   0.008642  -0.015121  -0.026163
   50  H  4  Z   -0.010772   0.008622  -0.008873  -0.016214  -0.001538
   51  H  5  S   -0.029227  -0.036363  -0.052315  -0.080674  -0.279677
   52  H  5  S   -0.874619  -1.146198   0.791804   0.025120  -0.175628
   53  H  5  X    0.006619   0.010193   0.004451   0.016593   0.016060
   54  H  5  Y    0.011516   0.011872  -0.002848  -0.009810  -0.020046
   55  H  5  Z    0.002061   0.003816  -0.016310   0.012152   0.012664
   56  F  6  S   -0.028216  -0.021238   0.055738   0.007462  -0.007547
   57  F  6  S    0.053112   0.042159  -0.102027  -0.003894   0.017260
   58  F  6  S    0.226369   0.169888  -0.492458  -0.107182   0.069483
   59  F  6  X    0.129459   0.011302  -0.127715  -0.106915   0.065546
   60  F  6  Y    0.033486   0.035350  -0.089579   0.062798  -0.089801
   61  F  6  Z    0.059330  -0.023870  -0.097612  -0.015512  -0.016901
   62  F  6  X    0.155505   0.033135  -0.160764  -0.202373   0.096889
   63  F  6  Y    0.059250   0.076607  -0.095452   0.110736  -0.133563
   64  F  6  Z    0.072141  -0.048822  -0.150183   0.010056   0.011116
   65  F  6 XX    0.001281   0.000739  -0.001916   0.007020   0.003698
   66  F  6 YY   -0.002824  -0.005189  -0.001620  -0.009368   0.001317
   67  F  6 ZZ    0.001543   0.004450   0.003536   0.002347  -0.005015
   68  F  6 XY   -0.002203  -0.000706   0.000804   0.004710  -0.004626
   69  F  6 XZ   -0.001955   0.005890   0.002039   0.002119   0.003993
   70  F  6 YZ   -0.002633  -0.001282   0.002683  -0.006168   0.000552
   71  H  7  S    0.071070  -0.012604   0.052348   0.074513  -0.229324
   72  H  7  S    0.896393  -1.304082  -0.529128   0.966538  -0.021218
   73  H  7  X   -0.001660   0.011132  -0.015170   0.002240  -0.010945
   74  H  7  Y    0.006942  -0.009095  -0.009197  -0.014575   0.026079
   75  H  7  Z    0.010537  -0.008046  -0.008859   0.016701  -0.002449
   76  H  8  S    0.027569   0.037746  -0.051526   0.080472  -0.279702
   77  H  8  S    0.855745   1.120031   0.827425  -0.022822  -0.176430
   78  H  8  X    0.006501   0.010325  -0.004163   0.016592  -0.016078
   79  H  8  Y    0.011181   0.011643   0.002649  -0.010230   0.020499
   80  H  8  Z   -0.002444  -0.003713  -0.016508  -0.011865   0.011990

                     26         27         28         29         30
                    0.3903     0.3915     0.4316     0.4621     0.5251
                     A          A          A          A          A   
    1  C  1  S   -0.027901  -0.033859  -0.008749   0.071473  -0.017748
    2  C  1  S    0.237751   0.212650  -0.039093  -0.506149   0.077767
    3  C  1  S   -0.203325  -0.166929   0.238997   1.597387   0.135833
    4  C  1  X   -0.500417  -0.406471   0.195616  -0.437943   0.186508
    5  C  1  Y   -0.237042  -0.227744   0.257630   0.443458   0.268414
    6  C  1  Z   -0.338950  -0.232828   0.140834  -0.045329  -0.381109
    7  C  1  X    0.467606   0.366370  -0.972799   1.282123  -0.050594
    8  C  1  Y    0.470024   0.196083  -0.886389  -1.412147  -0.506259
    9  C  1  Z    0.561671   0.511149   0.153022  -0.029843   0.087344
   10  C  1 XX   -0.024075  -0.000982   0.025160   0.028939   0.031965
   11  C  1 YY    0.022729   0.025780   0.023549  -0.008672  -0.100007
   12  C  1 ZZ    0.001346  -0.024798  -0.048709  -0.020267   0.068042
   13  C  1 XY   -0.044120   0.003288   0.023560  -0.051165  -0.027293
   14  C  1 XZ   -0.012052   0.000569   0.061759  -0.016480   0.010598
   15  C  1 YZ    0.002522  -0.050416  -0.052300  -0.025431   0.056617
   16  C  2  S    0.024760  -0.036292  -0.008851  -0.071373   0.017697
   17  C  2  S   -0.218128   0.233825  -0.037939   0.505638  -0.077629
   18  C  2  S    0.186967  -0.187907   0.234243  -1.595687  -0.135085
   19  C  2  X   -0.461838   0.449637  -0.194778  -0.438625   0.186224
   20  C  2  Y   -0.205813   0.238554  -0.251925   0.446276   0.281181
   21  C  2  Z    0.324021  -0.270911   0.149207   0.030695   0.370327
   22  C  2  X    0.434369  -0.404297   0.975292   1.281630  -0.050888
   23  C  2  Y    0.435732  -0.220377   0.886898  -1.414165  -0.510097
   24  C  2  Z   -0.528180   0.568647   0.124051   0.077458  -0.067882
   25  C  2 XX    0.024009  -0.003149   0.025176  -0.029008  -0.031947
   26  C  2 YY   -0.019991   0.030729   0.026661   0.007222   0.103083
   27  C  2 ZZ   -0.004018  -0.027580  -0.051837   0.021786  -0.071136
   28  C  2 XY    0.043887  -0.000608   0.021354   0.050530   0.027594
   29  C  2 XZ   -0.013676   0.000570  -0.062542  -0.018275   0.009732
   30  C  2 YZ    0.007793   0.047711   0.049356  -0.024892   0.049508
   31  F  3  S    0.005294   0.007193   0.021008   0.016595  -0.007761
   32  F  3  S    0.049380  -0.075722  -0.004328  -0.078860   0.010401
   33  F  3  S   -0.382888   0.279250  -0.461359   0.040516   0.116269
   34  F  3  X   -0.187217   0.143388  -0.185865   0.043359  -0.018445
   35  F  3  Y   -0.134283   0.063950  -0.004049   0.029682  -0.091801
   36  F  3  Z    0.076847  -0.195518  -0.063917   0.007787  -0.097601
   37  F  3  X    0.077007  -0.001455   0.056000  -0.085367  -0.052148
   38  F  3  Y   -0.008458  -0.008644   0.031334   0.112615   0.024793
   39  F  3  Z   -0.002444  -0.033966  -0.127430  -0.017477   0.044996
   40  F  3 XX   -0.020320   0.009216  -0.020899   0.018563  -0.005315
   41  F  3 YY    0.009939  -0.005701   0.008954  -0.010240  -0.007685
   42  F  3 ZZ    0.010381  -0.003515   0.011945  -0.008323   0.013000
   43  F  3 XY   -0.025948   0.019601  -0.010113  -0.011462  -0.011230
   44  F  3 XZ    0.022468  -0.031475   0.014546  -0.004308  -0.015801
   45  F  3 YZ    0.019671  -0.010505   0.007137   0.003967  -0.007771
   46  H  4  S    0.017200  -0.421679  -0.570445  -0.233003  -0.461174
   47  H  4  S    0.094069   0.043725   0.211539  -0.286166   0.610473
   48  H  4  X   -0.016679   0.004105  -0.005102  -0.030453  -0.004580
   49  H  4  Y    0.020531   0.024919   0.025317   0.001287   0.019531
   50  H  4  Z   -0.001043  -0.004170  -0.023894  -0.010546  -0.035514
   51  H  5  S    0.192577   0.208521   0.271711  -0.297151   0.596880
   52  H  5  S    0.055734  -0.032598   0.069715  -0.313527  -1.034404
   53  H  5  X   -0.003714   0.018931   0.001511  -0.016501  -0.020404
   54  H  5  Y   -0.003999  -0.019920   0.007155   0.010636  -0.073108
   55  H  5  Z    0.004414  -0.000056   0.017260   0.012518   0.007188
   56  F  6  S   -0.004585   0.007615   0.020953  -0.016691   0.007703
   57  F  6  S   -0.056056  -0.070862  -0.004005   0.079259  -0.010257
   58  F  6  S    0.405710   0.243606  -0.462058  -0.040685  -0.115746
   59  F  6  X   -0.199015  -0.125846   0.186209   0.043645  -0.018427
   60  F  6  Y   -0.142698  -0.058235   0.002235   0.029384  -0.088554
   61  F  6  Z   -0.089149  -0.185921  -0.063681  -0.008500   0.100802
   62  F  6  X    0.076764  -0.005775  -0.055995  -0.085082  -0.051801
   63  F  6  Y   -0.007335   0.008423  -0.036016   0.112712   0.022990
   64  F  6  Z   -0.000584  -0.034226  -0.126075   0.013767  -0.045877
   65  F  6 XX    0.020940   0.007267  -0.020891  -0.018567   0.005322
   66  F  6 YY   -0.009051  -0.004197   0.008493   0.010482   0.007244
   67  F  6 ZZ   -0.011888  -0.003070   0.012398   0.008085  -0.012567
   68  F  6 XY    0.028497   0.018246  -0.010722   0.011192   0.010688
   69  F  6 XZ    0.024137   0.028694  -0.014228  -0.004745  -0.016169
   70  F  6 YZ    0.020506   0.008804  -0.007071   0.003843  -0.008620
   71  H  7  S   -0.055858  -0.417333  -0.569025   0.233805   0.461496
   72  H  7  S   -0.089379   0.052223   0.211240   0.286557  -0.612462
   73  H  7  X   -0.016950  -0.002577   0.005147  -0.030490  -0.004596
   74  H  7  Y    0.018159  -0.026869  -0.026155   0.001717   0.020898
   75  H  7  Z    0.000015  -0.003277  -0.022933   0.010534   0.034957
   76  H  8  S   -0.172468   0.225463   0.271951   0.297460  -0.598478
   77  H  8  S   -0.057460  -0.027074   0.071344   0.311008   1.035951
   78  H  8  X   -0.005322  -0.018537  -0.001506  -0.016535  -0.020431
   79  H  8  Y   -0.002483   0.020226  -0.006558   0.010341  -0.073417
   80  H  8  Z   -0.004262  -0.000428   0.017430  -0.012946  -0.004539

                     31         32         33         34         35
                    0.5305     0.5470     0.5541     0.5811     0.7859
                     A          A          A          A          A   
    1  C  1  S   -0.039384  -0.045147  -0.050486  -0.050462   0.021781
    2  C  1  S    0.257900   0.352651   0.309923   0.461074  -1.287179
    3  C  1  S   -0.345548  -0.567902   0.316865  -0.625704   2.661791
    4  C  1  X    0.032580  -0.261741  -0.253539   0.071150  -0.186697
    5  C  1  Y    0.412464   0.107132   0.187472   0.363015  -0.032842
    6  C  1  Z   -0.393575   0.480575   0.441390  -0.142630  -0.033530
    7  C  1  X   -0.110751   0.746913   1.103644  -0.099496   0.094721
    8  C  1  Y   -0.410891   0.433750  -0.661305  -0.739145   0.705975
    9  C  1  Z    0.657163  -0.897009  -1.840683   1.545697   0.012326
   10  C  1 XX    0.017376   0.023160   0.057668   0.030717  -0.034192
   11  C  1 YY   -0.026436   0.016764  -0.028071   0.021493   0.010694
   12  C  1 ZZ    0.009060  -0.039924  -0.029597  -0.052211   0.023497
   13  C  1 XY   -0.032038  -0.008016  -0.008627   0.002326   0.059429
   14  C  1 XZ    0.015390   0.046219   0.031407   0.008288   0.021488
   15  C  1 YZ    0.076206  -0.008379   0.006889   0.001229   0.022043
   16  C  2  S   -0.039383  -0.045011   0.050589   0.050566   0.021781
   17  C  2  S    0.258524   0.351945  -0.311031  -0.462184  -1.286732
   18  C  2  S   -0.351785  -0.567871  -0.314114   0.626682   2.659320
   19  C  2  X   -0.034179   0.261871  -0.253660   0.071418   0.186985
   20  C  2  Y   -0.424512  -0.089579   0.173364   0.368201   0.031278
   21  C  2  Z   -0.380574   0.484583  -0.446880   0.129344  -0.034509
   22  C  2  X    0.116209  -0.747287   1.103537  -0.097653  -0.094809
   23  C  2  Y    0.427660  -0.466640  -0.600341  -0.788852  -0.706688
   24  C  2  Z    0.644655  -0.884270   1.861359  -1.517086   0.036785
   25  C  2 XX    0.017052   0.022969  -0.057675  -0.030716  -0.034355
   26  C  2 YY   -0.030998   0.017294   0.028634  -0.021301   0.009586
   27  C  2 ZZ    0.013946  -0.040263   0.029041   0.052017   0.024769
   28  C  2 XY   -0.032599  -0.009651   0.009769  -0.001809   0.058557
   29  C  2 XZ   -0.014269  -0.045879   0.031044   0.008491  -0.023750
   30  C  2 YZ   -0.074692   0.006165   0.007015   0.004338  -0.021679
   31  F  3  S    0.011825   0.006264  -0.013464   0.004249   0.032233
   32  F  3  S   -0.053617  -0.047832   0.027316   0.010883  -0.139768
   33  F  3  S    0.017422   0.135918   0.163898  -0.175491  -0.161121
   34  F  3  X    0.015517   0.084599   0.015187  -0.011524   0.035645
   35  F  3  Y    0.008618   0.032212  -0.100873   0.062429  -0.024438
   36  F  3  Z    0.014233   0.063606  -0.055480   0.179189   0.040892
   37  F  3  X    0.005168   0.035936  -0.141860   0.073029   0.131251
   38  F  3  Y   -0.025895  -0.010598  -0.008921   0.088009   0.141384
   39  F  3  Z   -0.058955   0.074419  -0.089134   0.036271  -0.119804
   40  F  3 XX   -0.001136  -0.003082   0.015851  -0.001672  -0.000114
   41  F  3 YY    0.013208   0.000324  -0.005875   0.003827   0.004743
   42  F  3 ZZ   -0.012072   0.002759  -0.009976  -0.002155  -0.004629
   43  F  3 XY    0.012208   0.000083  -0.011919   0.001782  -0.030165
   44  F  3 XZ    0.005216  -0.002097   0.002233   0.007079   0.018993
   45  F  3 YZ   -0.002326  -0.009426   0.002387   0.005626   0.017005
   46  H  4  S   -0.112237  -0.386360   0.192552   0.617650  -0.332655
   47  H  4  S   -0.501171   1.142342  -1.741796   0.135316  -0.539741
   48  H  4  X   -0.015071  -0.032227   0.031811  -0.012384  -0.025614
   49  H  4  Y   -0.031715  -0.010443  -0.012091  -0.001344  -0.022671
   50  H  4  Z    0.006773  -0.077255   0.067646   0.035248   0.027979
   51  H  5  S   -0.646727  -0.373203   0.434976   0.027378  -0.369934
   52  H  5  S    1.125084  -0.437789   0.076011  -1.188768  -0.908720
   53  H  5  X    0.020528   0.009081  -0.013696  -0.005150  -0.020519
   54  H  5  Y    0.063618  -0.003043  -0.013263  -0.033358  -0.027098
   55  H  5  Z    0.050544   0.012001   0.000358  -0.067480   0.001653
   56  F  6  S    0.011844   0.006291   0.013394  -0.004198   0.032272
   57  F  6  S   -0.053511  -0.047848  -0.027075  -0.010903  -0.139840
   58  F  6  S    0.016492   0.135601  -0.163813   0.174311  -0.161489
   59  F  6  X   -0.014902  -0.084345   0.015450  -0.011327  -0.035123
   60  F  6  Y   -0.007949  -0.030081  -0.098959   0.056349   0.025540
   61  F  6  Z    0.014244   0.064349   0.058873  -0.181701   0.039413
   62  F  6  X   -0.005968  -0.036382  -0.141377   0.072510  -0.132049
   63  F  6  Y    0.024221   0.013580  -0.006422   0.086813  -0.145257
   64  F  6  Z   -0.059745   0.073789   0.089539  -0.039651  -0.114451
   65  F  6 XX   -0.001304  -0.003113  -0.015876   0.001664  -0.000079
   66  F  6 YY    0.013386   0.000905   0.006047  -0.003533   0.003607
   67  F  6 ZZ   -0.012083   0.002207   0.009829   0.001869  -0.003528
   68  F  6 XY    0.012000   0.000165   0.011902  -0.001567  -0.030826
   69  F  6 XZ   -0.005652   0.002064   0.001819   0.007124  -0.017891
   70  F  6 YZ    0.001287   0.009491   0.002527   0.005848  -0.017406
   71  H  7  S   -0.114154  -0.387516  -0.192728  -0.617415  -0.332492
   72  H  7  S   -0.496429   1.142062   1.742516  -0.137213  -0.540496
   73  H  7  X    0.015006   0.032160   0.031793  -0.012513   0.025478
   74  H  7  Y    0.031836   0.007802  -0.014378  -0.002771   0.023376
   75  H  7  Z    0.005499  -0.077641  -0.067208  -0.035045   0.027237
   76  H  8  S   -0.645971  -0.373853  -0.434053  -0.024723  -0.369468
   77  H  8  S    1.125647  -0.434634  -0.079404   1.189368  -0.908525
   78  H  8  X   -0.020494  -0.009048  -0.013701  -0.004987   0.020581
   79  H  8  Y   -0.061752   0.003308  -0.013097  -0.030916   0.027096
   80  H  8  Z    0.052800   0.012001  -0.000012   0.068550   0.000580

                     36         37         38         39         40
                    0.9163     0.9529     0.9622     1.0139     1.1317
                     A          A          A          A          A   
    1  C  1  S    0.011071   0.000670  -0.017703  -0.006678   0.031564
    2  C  1  S    0.351429  -0.037708  -0.473450   0.284576   1.319158
    3  C  1  S   -2.178727   0.073448   2.823471   0.201727  -5.043561
    4  C  1  X    0.089139   0.045229  -0.158400  -0.174646  -0.147443
    5  C  1  Y    0.141401   0.054416  -0.041822  -0.160572  -0.011472
    6  C  1  Z    0.121868   0.071195  -0.123185  -0.097393  -0.042198
    7  C  1  X   -0.498683   0.022354   0.589532  -0.033621  -1.310031
    8  C  1  Y    0.355170   0.215785  -0.528925   0.128161   0.951382
    9  C  1  Z   -0.058812  -0.201970   0.338883  -0.108494  -0.368909
   10  C  1 XX   -0.171420   0.056345  -0.000027   0.025854   0.014598
   11  C  1 YY    0.142853   0.055424   0.053991   0.026069  -0.034861
   12  C  1 ZZ    0.028567  -0.111769  -0.053964  -0.051923   0.020264
   13  C  1 XY   -0.078949   0.024304   0.029908   0.083213   0.067724
   14  C  1 XZ    0.024862  -0.160845   0.108980   0.085849   0.000267
   15  C  1 YZ    0.020701   0.099839   0.103034   0.084908   0.032254
   16  C  2  S   -0.011068   0.000936   0.017708  -0.006642  -0.031568
   17  C  2  S   -0.352709  -0.029629   0.472328   0.285914  -1.318656
   18  C  2  S    2.182347   0.027019  -2.821898   0.194960   5.044846
   19  C  2  X    0.089627  -0.047297  -0.157798   0.174636  -0.148180
   20  C  2  Y    0.136454  -0.052898  -0.036705   0.156791  -0.010061
   21  C  2  Z   -0.126470   0.074957   0.123884  -0.102761   0.042513
   22  C  2  X   -0.498447  -0.011757   0.589710   0.035638  -1.306921
   23  C  2  Y    0.354887  -0.231539  -0.537135  -0.134058   0.962883
   24  C  2  Z    0.045630  -0.197502  -0.317721  -0.104680   0.336044
   25  C  2 XX    0.171780   0.055694  -0.000673   0.026009  -0.014916
   26  C  2 YY   -0.141531   0.049311  -0.048128   0.020702   0.037174
   27  C  2 ZZ   -0.030249  -0.105005   0.048802  -0.046711  -0.022258
   28  C  2 XY    0.079806   0.029368  -0.026315   0.080073  -0.068033
   29  C  2 XZ    0.022782   0.160887   0.108491  -0.088735   0.002474
   30  C  2 YZ    0.024744  -0.105489   0.108192  -0.087651   0.030223
   31  F  3  S    0.031801  -0.004956  -0.051969   0.043300   0.013070
   32  F  3  S   -0.113549   0.007787   0.245437  -0.220276  -0.064324
   33  F  3  S   -0.192043   0.030846   0.153819   0.028745  -0.260941
   34  F  3  X   -0.468017   0.092026   0.061212  -0.321235   0.220024
   35  F  3  Y    0.121587  -0.383875   0.359651  -0.332533   0.238676
   36  F  3  Z   -0.184265  -0.374674  -0.276760   0.240736  -0.072263
   37  F  3  X    0.733594  -0.159396  -0.340057   0.592413  -0.175125
   38  F  3  Y   -0.040262   0.431711  -0.528253   0.524108  -0.332636
   39  F  3  Z    0.066405   0.467394   0.500385  -0.407762   0.024702
   40  F  3 XX   -0.019050  -0.004150  -0.000267   0.026006  -0.047999
   41  F  3 YY   -0.002249  -0.008289   0.003311  -0.015494   0.010031
   42  F  3 ZZ    0.021300   0.012440  -0.003044  -0.010512   0.037968
   43  F  3 XY    0.014976  -0.021591  -0.010472   0.021224  -0.020835
   44  F  3 XZ   -0.003301   0.001466   0.000948  -0.030039   0.052673
   45  F  3 YZ   -0.008633  -0.006296  -0.003692  -0.014323   0.035821
   46  H  4  S   -0.153481  -0.016107   0.312511   0.051799  -0.576577
   47  H  4  S   -0.221230   0.134780   0.307555   0.052759  -0.297876
   48  H  4  X    0.054717   0.092172   0.053230  -0.036166  -0.008571
   49  H  4  Y    0.043257  -0.052809   0.064463  -0.052108   0.013046
   50  H  4  Z    0.003352  -0.052455  -0.021994   0.004285   0.027064
   51  H  5  S   -0.167496  -0.075627   0.291037   0.074197  -0.450522
   52  H  5  S   -0.154311  -0.158193  -0.149845  -0.225189  -0.170899
   53  H  5  X   -0.092315  -0.092365  -0.010676  -0.022447   0.023411
   54  H  5  Y    0.028975  -0.009999   0.057730  -0.027332  -0.025321
   55  H  5  Z   -0.023354   0.062853  -0.064701   0.049279   0.007527
   56  F  6  S   -0.031701  -0.004207   0.052050   0.043368  -0.013084
   57  F  6  S    0.112919   0.004357  -0.245726  -0.220621   0.064444
   58  F  6  S    0.192222   0.028145  -0.154326   0.028511   0.260705
   59  F  6  X   -0.469239  -0.089694   0.061820   0.321052   0.217425
   60  F  6  Y    0.129700   0.373603   0.364508   0.340858   0.243674
   61  F  6  Z    0.178707  -0.385682   0.267965   0.229416   0.065456
   62  F  6  X    0.734485   0.152536  -0.340969  -0.592405  -0.171465
   63  F  6  Y   -0.044354  -0.420272  -0.540764  -0.538632  -0.336558
   64  F  6  Z   -0.063733   0.477204  -0.486741  -0.390022  -0.015211
   65  F  6 XX    0.019092  -0.004169   0.000272   0.025917   0.047752
   66  F  6 YY    0.001608  -0.007988  -0.003455  -0.014571  -0.007665
   67  F  6 ZZ   -0.020700   0.012157   0.003183  -0.011346  -0.040087
   68  F  6 XY   -0.015214  -0.021430   0.010715   0.022370   0.022762
   69  F  6 XZ   -0.002749  -0.000754   0.000562   0.029253   0.051879
   70  F  6 YZ   -0.009583   0.007063  -0.003491   0.014522   0.034662
   71  H  7  S    0.152627  -0.020418  -0.312788   0.051107   0.576169
   72  H  7  S    0.221257   0.130720  -0.309459   0.052370   0.297595
   73  H  7  X    0.054429  -0.091923   0.054004   0.036109  -0.008505
   74  H  7  Y    0.043385   0.051373   0.064572   0.052281   0.012184
   75  H  7  Z   -0.005037  -0.053912   0.020330   0.002518  -0.027420
   76  H  8  S    0.166098  -0.079924  -0.290132   0.073385   0.450749
   77  H  8  S    0.152645  -0.157617   0.150885  -0.224243   0.169972
   78  H  8  X   -0.091684   0.092411  -0.011456   0.022395   0.022745
   79  H  8  Y    0.029614   0.012798   0.059705   0.029077  -0.025432
   80  H  8  Z    0.022592   0.062895   0.061851   0.048269  -0.006497

                     41         42         43         44         45
                    1.1689     1.1850     1.3023     1.3097     1.5104
                     A          A          A          A          A   
    1  C  1  S    0.003853  -0.003075  -0.002134   0.000024  -0.001646
    2  C  1  S    0.221610  -0.021459  -0.026244  -0.016851  -0.078121
    3  C  1  S   -0.473320  -0.181450  -0.225539   0.143557   0.364895
    4  C  1  X   -0.021351  -0.101870  -0.011233   0.005837   0.041726
    5  C  1  Y    0.004448  -0.023798  -0.023992  -0.003999   0.027025
    6  C  1  Z   -0.052928   0.013393   0.008176   0.006992   0.040589
    7  C  1  X   -0.261363   0.616483  -0.355542   0.106616   0.398048
[...]
   27  C  2 ZZ    0.000782  -0.000757  -0.007066  -0.028266  -0.047188
   28  C  2 XY   -0.004916  -0.015108   0.014098  -0.030320  -0.049861
   29  C  2 XZ    0.002248  -0.005788  -0.020607  -0.008333  -0.006913
   30  C  2 YZ    0.007314  -0.003036  -0.006595  -0.014358  -0.020476
   31  F  3  S    0.026864   0.020424  -0.057105  -0.008534  -0.007336
   32  F  3  S   -0.050983  -0.041433   0.103847   0.007749   0.013812
   33  F  3  S   -0.213555  -0.159294   0.508096   0.108426   0.082181
   34  F  3  X    0.127226   0.011177  -0.135194  -0.111917  -0.057757
   35  F  3  Y    0.029792   0.035827  -0.100953   0.063454   0.087249
   36  F  3  Z   -0.052400   0.030346   0.095948   0.014202  -0.020753
   37  F  3  X    0.151937   0.029574  -0.172444  -0.202971  -0.096384
   38  F  3  Y    0.055570   0.077477  -0.104688   0.110467   0.133490
   39  F  3  Z   -0.065553   0.054223   0.146839  -0.013748   0.009469
   40  F  3 XX   -0.001174  -0.000860   0.001561  -0.007535   0.004279
   41  F  3 YY    0.002677   0.005271   0.001853   0.009434   0.001274
   42  F  3 ZZ   -0.001503  -0.004411  -0.003414  -0.001898  -0.005553
   43  F  3 XY    0.002195   0.000678  -0.001597  -0.004392  -0.004545
   44  F  3 XZ   -0.001786   0.006146   0.002200   0.002033  -0.004185
   45  F  3 YZ   -0.002739  -0.001730   0.002945  -0.006205  -0.000754
   46  H  4  S   -0.069692   0.011115  -0.054206  -0.070015  -0.222952
   47  H  4  S   -0.912456   1.278540   0.484835  -0.984124  -0.036308
   48  H  4  X   -0.001437   0.010299  -0.016002   0.002149   0.011720
   49  H  4  Y    0.006740  -0.010039  -0.009140  -0.014141  -0.026883
   50  H  4  Z   -0.010609   0.008064   0.008199  -0.016930  -0.001405
   51  H  5  S   -0.031728  -0.041409   0.056512  -0.081829  -0.285497
   52  H  5  S   -0.862378  -1.143476  -0.747207   0.051043  -0.161538
   53  H  5  X    0.006114   0.010761  -0.005292   0.015831   0.015110
   54  H  5  Y    0.011254   0.011580   0.001374  -0.010646  -0.020182
   55  H  5  Z    0.002872   0.004529   0.016736   0.011957   0.012301
   56  F  6  S   -0.026999  -0.019463  -0.057474   0.008457  -0.007297
   57  F  6  S    0.051186   0.039665   0.104586  -0.007635   0.013764
   58  F  6  S    0.214936   0.150855   0.510977  -0.107578   0.081652
   59  F  6  X    0.128382   0.008966   0.135612  -0.111747   0.057752
   60  F  6  Y    0.033249   0.033016   0.104689   0.063110  -0.088004
   61  F  6  Z    0.051831  -0.033033   0.091788  -0.016414  -0.017630
   62  F  6  X    0.153082   0.026775   0.173278  -0.202692   0.096165
   63  F  6  Y    0.059566   0.073705   0.110951   0.111186  -0.133258
   64  F  6  Z    0.063807  -0.059264   0.142051   0.009917   0.014241
   65  F  6 XX    0.001108   0.000823   0.001571   0.007538   0.004268
   66  F  6 YY   -0.002816  -0.005387   0.001576  -0.009803   0.001315
   67  F  6 ZZ    0.001708   0.004565  -0.003147   0.002265  -0.005583
   68  F  6 XY   -0.002333  -0.000437  -0.001682   0.004449  -0.004398
   69  F  6 XZ   -0.001706   0.006200  -0.002037   0.001873   0.004347
   70  F  6 YZ   -0.002599  -0.001279  -0.003171  -0.005725   0.000472
   71  H  7  S    0.068468  -0.010370  -0.054463   0.069769  -0.223020
   72  H  7  S    0.908296  -1.287207   0.463006   0.984640  -0.036005
   73  H  7  X   -0.001316   0.010049   0.016167   0.002166  -0.011727
   74  H  7  Y    0.007053  -0.010487   0.009266  -0.013520   0.026811
   75  H  7  Z    0.010356  -0.007827   0.007731   0.017433  -0.002388
   76  H  8  S    0.033001   0.040451   0.056949   0.081987  -0.285596
   77  H  8  S    0.878796   1.157640  -0.726109  -0.051668  -0.161806
   78  H  8  X    0.006200   0.010667   0.005468   0.015840  -0.015117
   79  H  8  Y    0.011348   0.011437  -0.000544  -0.011064   0.020626
   80  H  8  Z   -0.003336  -0.005241   0.016687  -0.011543   0.011561

                     26         27
                    0.3897     0.3905
                     A          A   
    1  C  1  S   -0.033949  -0.025183
    2  C  1  S    0.203434   0.223668
    3  C  1  S   -0.143380  -0.183946
    4  C  1  X   -0.401781  -0.513294
    5  C  1  Y   -0.208769  -0.224119
    6  C  1  Z   -0.209973  -0.302220
    7  C  1  X    0.302432   0.488620
    8  C  1  Y    0.146671   0.454115
    9  C  1  Z    0.532447   0.487306
   10  C  1 XX   -0.000363  -0.025435
   11  C  1 YY    0.025603   0.024731
   12  C  1 ZZ   -0.025240   0.000705
   13  C  1 XY    0.004162  -0.045562
   14  C  1 XZ    0.006572  -0.010414
   15  C  1 YZ   -0.059206   0.004030
   16  C  2  S   -0.034830   0.023991
   17  C  2  S    0.211183  -0.216602
   18  C  2  S   -0.148727   0.178921
   19  C  2  X    0.419850  -0.498757
   20  C  2  Y    0.208290  -0.205806
   21  C  2  Z   -0.228148   0.302283
   22  C  2  X   -0.320257   0.478050
   23  C  2  Y   -0.141983   0.432090
   24  C  2  Z    0.554973  -0.484219
   25  C  2 XX   -0.001216   0.025396
   26  C  2 YY    0.030068  -0.023371
   27  C  2 ZZ   -0.028852  -0.002026
   28  C  2 XY    0.002311   0.045318
   29  C  2 XZ   -0.006266  -0.012272
   30  C  2 YZ    0.056765   0.007041
   31  F  3  S    0.009241   0.006125
   32  F  3  S   -0.074506   0.046930
   33  F  3  S    0.225113  -0.388235
   34  F  3  X    0.126286  -0.189969
   35  F  3  Y    0.059101  -0.140705
   36  F  3  Z   -0.191138   0.073991
   37  F  3  X    0.005414   0.078560
   38  F  3  Y   -0.005436  -0.007956
   39  F  3  Z   -0.047517  -0.003825
   40  F  3 XX    0.007900  -0.021018
   41  F  3 YY   -0.004070   0.009016
   42  F  3 ZZ   -0.003831   0.012002
   43  F  3 XY    0.018242  -0.027895
   44  F  3 XZ   -0.028146   0.022193
   45  F  3 YZ   -0.008355   0.019391
   46  H  4  S   -0.474643   0.028053
   47  H  4  S    0.070544   0.085099
   48  H  4  X    0.003017  -0.015596
   49  H  4  Y    0.027823   0.019359
   50  H  4  Z   -0.004836   0.000176
   51  H  5  S    0.254217   0.180516
   52  H  5  S   -0.036142   0.057004
   53  H  5  X    0.019131  -0.005285
   54  H  5  Y   -0.020444  -0.002292
   55  H  5  Z    0.001013   0.003975
   56  F  6  S    0.009447  -0.005766
   57  F  6  S   -0.072811  -0.049583
   58  F  6  S    0.211345   0.395576
   59  F  6  X   -0.119538  -0.194285
   60  F  6  Y   -0.060871  -0.145406
   61  F  6  Z   -0.186211  -0.075583
   62  F  6  X   -0.008049   0.078194
   63  F  6  Y    0.003943  -0.007747
   64  F  6  Z   -0.047769   0.002372
   65  F  6 XX    0.007172   0.021287
   66  F  6 YY   -0.003286  -0.007960
   67  F  6 ZZ   -0.003886  -0.013327
   68  F  6 XY    0.018206   0.029307
   69  F  6 XZ    0.026711   0.022144
   70  F  6 YZ    0.007642   0.019493
   71  H  7  S   -0.473108  -0.044858
   72  H  7  S    0.073108  -0.082343
   73  H  7  X   -0.002439  -0.015707
   74  H  7  Y   -0.028640   0.018312
   75  H  7  Z   -0.003806  -0.001034
   76  H  8  S    0.260115  -0.171193
   77  H  8  S   -0.033839  -0.058168
   78  H  8  X   -0.018968  -0.005972
   79  H  8  Y    0.020521  -0.001729
   80  H  8  Z    0.000406  -0.003893

     ---------------------------------------------------------------------
     PROPERTIES FOR THE PBE      DFT FUNCTIONAL (RHF  TYPE) DENSITY MATRIX
     ---------------------------------------------------------------------

          -----------------
          ENERGY COMPONENTS
          -----------------

         WAVEFUNCTION NORMALIZATION =       1.0000000000

                ONE ELECTRON ENERGY =    -631.1044819159
                TWO ELECTRON ENERGY =     228.5102537358
           NUCLEAR REPULSION ENERGY =     124.6609208507
                                      ------------------
                       TOTAL ENERGY =    -277.9333073294

 ELECTRON-ELECTRON POTENTIAL ENERGY =     228.5102537358
  NUCLEUS-ELECTRON POTENTIAL ENERGY =    -908.1763237034
   NUCLEUS-NUCLEUS POTENTIAL ENERGY =     124.6609208507
                                      ------------------
             TOTAL POTENTIAL ENERGY =    -555.0051491169
               TOTAL KINETIC ENERGY =     277.0718417876
                 VIRIAL RATIO (V/T) =       2.0031091775

          ---------------------------------------
          MULLIKEN AND LOWDIN POPULATION ANALYSES
          ---------------------------------------

     ATOMIC MULLIKEN POPULATION IN EACH MOLECULAR ORBITAL

                      1          2          3          4          5

                  2.000000   2.000000   2.000000   2.000000   2.000000

    1            -0.000124   0.001273   0.594686   1.405068   0.108711
    2             0.001275  -0.000126   1.404624   0.595130   0.110071
    3             1.997979   0.000872  -0.000357  -0.000147   0.888198
    4            -0.000002  -0.000003   0.000294   0.000027   0.002897
    5            -0.000013   0.000018   0.000432  -0.000003   0.006821
    6             0.000870   1.997981  -0.000151  -0.000352   0.873636
    7            -0.000002  -0.000003   0.000173   0.000148   0.002852
    8             0.000017  -0.000012   0.000298   0.000131   0.006814

                      6          7          8          9         10

                  2.000000   2.000000   2.000000   2.000000   2.000000

    1             0.087860   0.704270   0.480397   0.497337   0.361956
    2             0.086518   0.704554   0.480263   0.494084   0.365846
    3             0.902288   0.163972   0.254071   0.279952   0.520451
    4             0.002509   0.071123   0.121585   0.198746   0.003787
    5             0.000699   0.060568   0.143888   0.031076   0.107352
    6             0.916842   0.163902   0.254254   0.266098   0.532546
    7             0.002557   0.071070   0.121590   0.197025   0.005646
    8             0.000727   0.060543   0.143952   0.035682   0.102418

                     11         12         13         14         15

                  2.000000   2.000000   2.000000   2.000000   2.000000

    1             0.385755   0.354392   0.299975   0.054590   0.131566
    2             0.385707   0.352568   0.301176   0.054436   0.132333
    3             0.602467   0.444492   0.482283   0.910687   0.690537
    4             0.007540   0.015484   0.180428   0.024477   0.040567
    5             0.004118   0.184722   0.038019   0.010789   0.139304
    6             0.602702   0.447132   0.480197   0.909826   0.687297
    7             0.007566   0.014495   0.181448   0.024436   0.039979
    8             0.004144   0.186715   0.036475   0.010758   0.138416

                     16         17

                  2.000000   2.000000

    1             0.159584   0.254510
    2             0.159067   0.254464
    3             0.563972   0.630073
    4             0.147537   0.082080
    5             0.126689   0.032718
    6             0.567952   0.631152
    7             0.147671   0.082413
    8             0.127528   0.032589

               ----- POPULATIONS IN EACH AO -----
                             MULLIKEN      LOWDIN
              1  C  1  S      1.99340     1.97169
              2  C  1  S      0.76070     0.38653
              3  C  1  S      0.37788     0.28227
              4  C  1  X      0.62220     0.57147
              5  C  1  Y      0.71174     0.64664
              6  C  1  Z      0.72789     0.65531
              7  C  1  X      0.13445     0.24310
              8  C  1  Y      0.23268     0.33134
              9  C  1  Z      0.25907     0.36254
             10  C  1 XX      0.01097     0.16277
             11  C  1 YY      0.01242     0.15277
             12  C  1 ZZ      0.01667     0.15752
             13  C  1 XY      0.01284     0.03414
             14  C  1 XZ      0.00889     0.02438
             15  C  1 YZ      0.00000     0.02116
             16  C  2  S      1.99340     1.97169
             17  C  2  S      0.76066     0.38651
             18  C  2  S      0.37795     0.28227
             19  C  2  X      0.62219     0.57143
             20  C  2  Y      0.71565     0.64997
             21  C  2  Z      0.72400     0.65193
             22  C  2  X      0.13452     0.24310
             23  C  2  Y      0.23637     0.33441
             24  C  2  Z      0.25547     0.35953
             25  C  2 XX      0.01144     0.16277
             26  C  2 YY      0.01242     0.15324
             27  C  2 ZZ      0.01642     0.15833
             28  C  2 XY      0.01309     0.03372
             29  C  2 XZ      0.00842     0.02479
             30  C  2 YZ      0.00000     0.01960
             31  F  3  S      1.99544     1.97164
             32  F  3  S      0.94934     0.75169
             33  F  3  S      0.99754     0.52616
             34  F  3  X      1.05829     1.01551
             35  F  3  Y      1.17438     1.14105
             36  F  3  Z      1.17962     1.14724
             37  F  3  X      0.60883     0.63969
             38  F  3  Y      0.67881     0.70610
             39  F  3  Z      0.67921     0.70926
             40  F  3 XX      0.00147     0.19389
             41  F  3 YY      0.00220     0.19047
             42  F  3 ZZ      0.00276     0.19020
             43  F  3 XY      0.00275     0.00360
             44  F  3 XZ      0.00116     0.00360
             45  F  3 YZ      0.00000     0.00168
             46  H  4  S      0.77199     0.65282
             47  H  4  S      0.11028     0.21472
             48  H  4  X      0.00293     0.00715
             49  H  4  Y      0.00358     0.00930
             50  H  4  Z      0.01030     0.02154
             51  H  5  S      0.76296     0.64448
             52  H  5  S      0.10724     0.21668
             53  H  5  X      0.00298     0.00781
             54  H  5  Y      0.00896     0.01958
             55  H  5  Z      0.00505     0.01083
             56  F  6  S      1.99544     1.97164
             57  F  6  S      0.94933     0.75168
             58  F  6  S      0.99757     0.52616
             59  F  6  X      1.05821     1.01542
             60  F  6  Y      1.17028     1.13661
             61  F  6  Z      1.18383     1.15181
             62  F  6  X      0.60881     0.63968
             63  F  6  Y      0.67640     0.70413
             64  F  6  Z      0.68169     0.71126
             65  F  6 XX      0.00144     0.19389
             66  F  6 YY      0.00221     0.19058
             67  F  6 ZZ      0.00284     0.19007
             68  F  6 XY      0.00266     0.00369
             69  F  6 XZ      0.00118     0.00352
             70  F  6 YZ      0.00000     0.00170
             71  H  7  S      0.77199     0.65265
             72  H  7  S      0.11026     0.21471
             73  H  7  X      0.00293     0.00715
             74  H  7  Y      0.00372     0.00956
             75  H  7  Z      0.01016     0.02126
             76  H  8  S      0.76299     0.64435
             77  H  8  S      0.10721     0.21664
             78  H  8  X      0.00298     0.00781
             79  H  8  Y      0.00868     0.01904
             80  H  8  Z      0.00534     0.01136

          ----- MULLIKEN ATOMIC OVERLAP POPULATIONS -----
          (OFF-DIAGONAL ELEMENTS NEED TO BE MULTIPLIED BY 2)

             1           2           3           4           5

    1    4.6348115
    2    0.3792761   4.6351293
    3   -0.0399887   0.2377559   9.1788990
    4   -0.0320295   0.3727856  -0.0302736   0.6168883
    5   -0.0506149   0.3797057  -0.0254477  -0.0316349   0.5953640
    6    0.2376959  -0.0399695   0.0005857   0.0036081   0.0066522
    7    0.3728340  -0.0320666   0.0036106  -0.0089972   0.0087342
    8    0.3798217  -0.0506278   0.0066505   0.0087306   0.0044367

             6           7           8

    6    9.1790861
    7   -0.0302897   0.6168274
    8   -0.0254841  -0.0315888   0.5952537

          TOTAL MULLIKEN AND LOWDIN ATOMIC POPULATIONS
       ATOM         MULL.POP.    CHARGE          LOW.POP.     CHARGE
    1 C             5.881806    0.118194         6.003628   -0.003628
    2 C             5.881989    0.118011         6.003305   -0.003305
    3 F             9.331792   -0.331792         9.191784   -0.191784
    4 H             0.899077    0.100923         0.905532    0.094468
    5 H             0.887195    0.112805         0.899373    0.100627
    6 F             9.331885   -0.331885         9.191852   -0.191852
    7 H             0.899064    0.100936         0.905334    0.094666
    8 H             0.887193    0.112807         0.899192    0.100808

          MULLIKEN SPHERICAL HARMONIC POPULATIONS
       ATOM           S       P       D      F      G      H      I    TOTAL
    1 C             3.13    2.69    0.06   0.00   0.00   0.00   0.00    5.88
    2 C             3.13    2.69    0.06   0.00   0.00   0.00   0.00    5.88
    3 F             3.94    5.38    0.01   0.00   0.00   0.00   0.00    9.33
    4 H             0.88    0.02    0.00   0.00   0.00   0.00   0.00    0.90
    5 H             0.87    0.02    0.00   0.00   0.00   0.00   0.00    0.89
    6 F             3.94    5.38    0.01   0.00   0.00   0.00   0.00    9.33
    7 H             0.88    0.02    0.00   0.00   0.00   0.00   0.00    0.90
    8 H             0.87    0.02    0.00   0.00   0.00   0.00   0.00    0.89

          -------------------------------
          BOND ORDER AND VALENCE ANALYSIS     BOND ORDER THRESHOLD=0.050
          -------------------------------

                   BOND                       BOND                       BOND
  ATOM PAIR DIST  ORDER      ATOM PAIR DIST  ORDER      ATOM PAIR DIST  ORDER
    1   2  1.527  1.025        1   6  1.402  0.912        1   7  1.106  0.942
    1   8  1.107  0.942        2   3  1.402  0.912        2   4  1.106  0.942
    2   5  1.107  0.942

                       TOTAL       BONDED        FREE
      ATOM            VALENCE     VALENCE     VALENCE
    1 C                 3.824       3.824      -0.000
    2 C                 3.824       3.824      -0.000
    3 F                 0.977       0.977       0.000
    4 H                 0.952       0.952       0.000
    5 H                 0.968       0.968      -0.000
    6 F                 0.977       0.977       0.000
    7 H                 0.952       0.952       0.000
    8 H                 0.968       0.968      -0.000

          ---------------------
          ELECTROSTATIC MOMENTS
          ---------------------

 POINT   1           X           Y           Z (BOHR)    CHARGE
                -0.000000    0.000000   -0.000000        0.00 (A.U.)
         DX          DY          DZ         /D/  (DEBYE)
     0.000292    0.026726    1.518306    1.518542
 ...... END OF PROPERTY EVALUATION ......
 STEP CPU TIME =     0.02 TOTAL CPU TIME =         98.0 (      1.6 MIN)
 TOTAL WALL CLOCK TIME=         98.9 SECONDS, CPU UTILIZATION IS    99.02%
  $VIB   
          IVIB=   0 IATOM=   0 ICOORD=   0 E=     -277.9333073294
  2.262131642E-05-2.086910188E-05-7.224165002E-05 2.701635399E-05-3.576593465E-05
 -1.211739579E-05 1.537206842E-05 3.464814778E-05 7.611539715E-06-1.512599861E-05
 -8.733306977E-06 4.399135536E-06-1.197469530E-05-5.800417537E-06 1.971285244E-05
  8.981375602E-06 4.350369764E-05 6.066159303E-05-2.522244070E-05-1.504382136E-05
 -7.720965203E-06-2.166797983E-05 8.060736981E-06-3.051096973E-07
  2.915607781E-04 2.672647189E-02 1.518306263E+00
 ......END OF GEOMETRY SEARCH......
 STEP CPU TIME =     0.00 TOTAL CPU TIME =         98.0 (      1.6 MIN)
 TOTAL WALL CLOCK TIME=         99.0 SECONDS, CPU UTILIZATION IS    99.00%
                991181  WORDS OF DYNAMIC MEMORY USED
 EXECUTION OF GAMESS TERMINATED NORMALLY Wed Oct  9 10:29:10 2019
 DDI: 263640 bytes (0.3 MB / 0 MWords) used by master data server.

 ----------------------------------------
 CPU timing information for all processes
 ========================================
 0: 96.73 + 1.906 = 97.979
 ----------------------------------------
 ddikick.x: exited gracefully.
----- accounting info -----
Files used on the master node d12chas536.crc.nd.edu were:
-rw-r--r-- 1 wschnei1 campus 401999 Oct  9 10:29 /scratch365/wschnei1/qnr-1.F07
Wed Oct  9 10:29:14 EDT 2019
0.479u 0.478s 1:42.96 0.9%	0+0k 224+832io 1pf+0w
