----- GAMESS execution script 'rungms' -----
This job is running on host d12chas535.crc.nd.edu
under operating system Linux at Wed Oct 9 10:36:56 EDT 2019
SGE has assigned the following compute nodes to this run:
Available scratch disk space (Kbyte units) at beginning of the job is
Filesystem      1K-blocks     Used  Available Use% Mounted on
/dev/sda2      1949705068 49018032 1900687036   3% /
GAMESS temporary binary files will be written to /tmp/478667.1.debug
GAMESS supplementary output files will be written to /afs/crc.nd.edu/user/w/wschnei1/scr
Copying input file vib-ts.inp to your run's scratch directory...
reading your own /afs/crc.nd.edu/user/w/wschnei1/.gmsrc

 Distributed Data Interface kickoff program.
 Initiating 1 compute processes on 1 nodes to run the following command:
 /afs/crc.nd.edu/x86_64_linux/g/gamess/nov-2017/gamess/gamess.00.x vib-ts 

          ******************************************************
          *         GAMESS VERSION = 11 NOV 2017 (R3)         *
          *             FROM IOWA STATE UNIVERSITY             *
          * M.W.SCHMIDT, K.K.BALDRIDGE, J.A.BOATZ, S.T.ELBERT, *
          *   M.S.GORDON, J.H.JENSEN, S.KOSEKI, N.MATSUNAGA,   *
          *          K.A.NGUYEN, S.J.SU, T.L.WINDUS,           *
          *       TOGETHER WITH M.DUPUIS, J.A.MONTGOMERY       *
          *         J.COMPUT.CHEM.  14, 1347-1363(1993)        *
          **************** 64 BIT INTEL VERSION ****************

  SINCE 1993, STUDENTS AND POSTDOCS WORKING AT IOWA STATE UNIVERSITY
  AND ALSO IN THEIR VARIOUS JOBS AFTER LEAVING ISU HAVE MADE IMPORTANT
  CONTRIBUTIONS TO THE CODE:
     IVANA ADAMOVIC, CHRISTINE AIKENS, YURI ALEXEEV, POOJA ARORA,
     ANDREY ASADCHEV, ROB BELL, PRADIPTA BANDYOPADHYAY, JONATHAN BENTZ,
     BRETT BODE, KURT BRORSEN, CALEB CARLIN, GALINA CHABAN, WEI CHEN,
     CHEOL HO CHOI, PAUL DAY, ALBERT DEFUSCO, NUWAN DESILVA, TIM DUDLEY,
     DMITRI FEDOROV, ALEX FINDLATER, GRAHAM FLETCHER, MARK FREITAG,
     KURT GLAESEMANN, ANASTASIA GUININA,
     DAN KEMP, GRANT MERRILL, NORIYUKI MINEZAWA, JONATHAN MULLIN,
     TAKESHI NAGATA, SEAN NEDD, HEATHER NETZLOFF, BOSILJKA NJEGIC, RYAN OLSON,
     MIKE PAK, BUU PHAM,
     SPENCER PRUITT, LUKE ROSKOP, JIM SHOEMAKER, LYUDMILA SLIPCHENKO,
     TONY SMITH, SAROM SOK LEANG, JIE SONG, TETSUYA TAKETSUGU, SIMON WEBB,
     PENG XU, SOOHAENG YOO, FEDERICO ZAHARIEV

  ADDITIONAL CODE HAS BEEN PROVIDED BY COLLABORATORS IN OTHER GROUPS:
     IOWA STATE UNIVERSITY:
          JOE IVANIC, AARON WEST, LAIMUTIS BYTAUTAS, KLAUS RUEDENBERG
     UNIVERSITY OF TOKYO: KIMIHIKO HIRAO, TAKAHITO NAKAJIMA,
          TAKAO TSUNEDA, MUNEAKI KAMIYA, SUSUMU YANAGISAWA,
          KIYOSHI YAGI, MAHITO CHIBA, SEIKEN TOKURA, NAOAKI KAWAKAMI
     UNIVERSITY OF AARHUS: FRANK JENSEN
     UNIVERSITY OF IOWA: VISVALDAS KAIRYS, HUI LI
     NATIONAL INST. OF STANDARDS AND TECHNOLOGY: WALT STEVENS, DAVID GARMER
     UNIVERSITY OF PISA: BENEDETTA MENNUCCI, JACOPO TOMASI
     UNIVERSITY OF MEMPHIS: HENRY KURTZ, PRAKASHAN KORAMBATH
     UNIVERSITY OF ALBERTA: TOBY ZENG, MARIUSZ KLOBUKOWSKI
     UNIVERSITY OF NEW ENGLAND: MARK SPACKMAN
     MIE UNIVERSITY: HIROAKI UMEDA
     NAT. INST. OF ADVANCED INDUSTRIAL SCIENCE AND TECHNOLOGY: KAZUO KITAURA
     MICHIGAN STATE UNIVERSITY:
          KAROL KOWALSKI, MARTA WLOCH, JEFFREY GOUR, JESSE LUTZ,
          WEI LI, PIOTR PIECUCH
     UNIVERSITY OF SILESIA: MONIKA MUSIAL, STANISLAW KUCHARSKI
     FACULTES UNIVERSITAIRES NOTRE-DAME DE LA PAIX:
          OLIVIER QUINET, BENOIT CHAMPAGNE
     UNIVERSITY OF CALIFORNIA - SANTA BARBARA: BERNARD KIRTMAN
     INSTITUTE FOR MOLECULAR SCIENCE:
          KAZUYA ISHIMURA, MICHIO KATOUDA, AND SHIGERU NAGASE
     UNIVERSITY OF NOTRE DAME: ANNA POMOGAEVA, DAN CHIPMAN
     KYUSHU UNIVERSITY:
          HARUYUKI NAKANO,
          FENG LONG GU, JACEK KORCHOWIEC, MARCIN MAKOWSKI, AND YURIKO AOKI,
          HIROTOSHI MORI AND EISAKU MIYOSHI
     PENNSYLVANIA STATE UNIVERSITY:
          TZVETELIN IORDANOV, CHET SWALINA, JONATHAN SKONE,
          SHARON HAMMES-SCHIFFER
     WASEDA UNIVERSITY:
          MASATO KOBAYASHI, TOMOKO AKAMA, TSUGUKI TOUMA,
          TAKESHI YOSHIKAWA, YASUHIRO IKABATA, JUNJI SEINO,
          YUYA NAKAJIMA, HIROMI NAKAI
     NANJING UNIVERSITY: SHUHUA LI
     UNIVERSITY OF NEBRASKA:
          PEIFENG SU, DEJUN SI, NANDUN THELLAMUREGE, YALI WANG, HUI LI
     UNIVERSITY OF ZURICH: ROBERTO PEVERATI, KIM BALDRIDGE
     N. COPERNICUS UNIVERSITY AND JACKSON STATE UNIVERSITY:
          MARIA BARYSZ
     UNIVERSITY OF COPENHAGEN: Jimmy Kromann, CASPER STEINMANN
     TOKYO INSTITUTE OF TECHNOLOGY: HIROYA NAKATA
     NAGOYA UNIVERSITY: YOSHIO NISHIMOTO, STEPHAN IRLE
     MOSCOW STATE UNIVERSITY: VLADIMIR MIRONOV

 EXECUTION OF GAMESS BEGUN Wed Oct  9 10:36:56 2019

            ECHO OF THE FIRST FEW INPUT CARDS -
 INPUT CARD> $CONTRL SCFTYP=RHF DFTTYP=PBE RUNTYP=HESSIAN COORD=ZMT NZVAR=18 ISPHER=1 $END  
 INPUT CARD> $FORCE METHOD=SEMINUM $END                                                     
 INPUT CARD> $BASIS GBASIS=PCseg-1 $END                                                     
 INPUT CARD> $DATA                                                                          
 INPUT CARD>FCH2CH2F  no-symmetry TS                                                        
 INPUT CARD>C1                                                                              
 INPUT CARD> C                                                                              
 INPUT CARD> C      1   1.5266485                                                           
 INPUT CARD> F      2   1.4016544  1   110.1827030                                          
 INPUT CARD> H      2   1.1063476  1   112.8189076  3   119.8849908  0                      
 INPUT CARD> H      2   1.1071335  1   108.2851360  3  -118.8764316  0                      
 INPUT CARD> F      1   1.4016659  2   110.2018205  3   124.3275333  0                      
 INPUT CARD> H      1   1.1063231  2   112.8326799  6   119.8782364  0                      
 INPUT CARD> H      1   1.1070510  2   108.2937696  6  -118.8292798  0                      
 INPUT CARD> $END                                                                           
    1000000 WORDS OF MEMORY AVAILABLE

     BASIS OPTIONS
     -------------
     GBASIS=PCSEG-1      IGAUSS=       0      POLAR=NONE    
     NDFUNC=       0     NFFUNC=       0     DIFFSP=       F
     NPFUNC=       0      DIFFS=       F     BASNAM=        


     RUN TITLE
     ---------
 FCH2CH2F  no-symmetry TS                                                        

 THE POINT GROUP OF THE MOLECULE IS C1      
 THE ORDER OF THE PRINCIPAL AXIS IS     0

 YOUR FULLY SUBSTITUTED Z-MATRIX IS
 C   
 C      1   1.5266485
 F      2   1.4016544  1  110.1827
 H      2   1.1063476  1  112.8189  3  119.8850  0
 H      2   1.1071335  1  108.2851  3 -118.8764  0
 F      1   1.4016659  2  110.2018  3  124.3275  0
 H      1   1.1063231  2  112.8327  6  119.8782  0
 H      1   1.1070510  2  108.2938  6 -118.8293  0

 THE MOMENTS OF INERTIA ARE (AMU-ANGSTROM**2)
 IXX=    20.599   IYY=   129.752   IZZ=   131.413

 ATOM      ATOMIC                      COORDINATES (BOHR)
           CHARGE         X                   Y                   Z
 C           6.0    -1.1325433924        0.8917870469        0.6441253060
 C           6.0     1.1328645273       -0.8945045876        0.6409105889
 F           9.0     3.2116946309        0.2680703806       -0.5178486508
 H           1.0     1.7268850695       -1.4541220895        2.5657400512
 H           1.0     0.6201126188       -2.6029571132       -0.4524732383
 F           9.0    -3.2118579155       -0.2658724026       -0.5187284980
 H           1.0    -1.7270874876        1.4445283581        2.5707288939
 H           1.0    -0.6206558381        2.6034742914       -0.4442948001

          INTERNUCLEAR DISTANCES (ANGS.)
          ------------------------------

                1 C          2 C          3 F          4 H          5 H     

   1 C       0.0000000    1.5266485 *  2.4024653 *  2.2056108 *  2.1487182 *
   2 C       1.5266485 *  0.0000000    1.4016544 *  1.1063476 *  1.1071335 *
   3 F       2.4024653 *  1.4016544 *  0.0000000    2.0274552 *  2.0469907 *
   4 H       2.2056108 *  1.1063476 *  2.0274552 *  0.0000000    1.8065323 *
   5 H       2.1487182 *  1.1071335 *  2.0469907 *  1.8065323 *  0.0000000  
   6 F       1.4016659 *  2.4027534 *  3.4109209    3.1448032    2.3754314 *
   7 H       1.1063231 *  2.2057616 *  3.1447083    2.3861215 *  2.9478183 *
   8 H       1.1070510 *  2.1487699 *  2.3752003 *  2.9480135 *  2.8322850 *

                6 F          7 H          8 H     

   1 C       1.4016659 *  1.1063231 *  1.1070510 *
   2 C       2.4027534 *  2.2057616 *  2.1487699 *
   3 F       3.4109209    3.1447083    2.3752003 *
   4 H       3.1448032    2.3861215 *  2.9480135 *
   5 H       2.3754314 *  2.9478183 *  2.8322850 *
   6 F       0.0000000    2.0271537 *  2.0462826 *
   7 H       2.0271537 *  0.0000000    1.8067908 *
   8 H       2.0462826 *  1.8067908 *  0.0000000  

  * ... LESS THAN  3.000


     ATOMIC BASIS SET
     ----------------
 THE CONTRACTED PRIMITIVE FUNCTIONS HAVE BEEN UNNORMALIZED
 THE CONTRACTED BASIS FUNCTIONS ARE NOW NORMALIZED TO UNITY

  SHELL TYPE  PRIMITIVE        EXPONENT          CONTRACTION COEFFICIENT(S)

 C         

      1   S       1          1243.2000000    0.005630097702
      1   S       2           187.1450000    0.041950603854
      1   S       3            42.5126000    0.184664360492
      1   S       4            11.7393000    0.466557421368
      1   S       5             3.5054800    0.448234778316

      2   S       6             5.3908900   -0.148114817444
      2   S       7             0.4933410    1.051981714281

      3   S       8             0.1497410    1.000000000000

      4   P       9             9.1805600    0.063992052045
      4   P      10             1.9365800    0.333521296407
      4   P      11             0.5262960    0.741161730513

      5   P      12             0.1363190    1.000000000000

      6   D      13             0.8000000    1.000000000000

 C         

      7   S      14          1243.2000000    0.005630097702
      7   S      15           187.1450000    0.041950603854
      7   S      16            42.5126000    0.184664360492
      7   S      17            11.7393000    0.466557421368
      7   S      18             3.5054800    0.448234778316

      8   S      19             5.3908900   -0.148114817444
      8   S      20             0.4933410    1.051981714281

      9   S      21             0.1497410    1.000000000000

     10   P      22             9.1805600    0.063992052045
     10   P      23             1.9365800    0.333521296407
     10   P      24             0.5262960    0.741161730513

     11   P      25             0.1363190    1.000000000000

     12   D      26             0.8000000    1.000000000000

 F         

     13   S      27          2931.5500000    0.005390132259
     13   S      28           441.1250000    0.040296704072
     13   S      29           100.2320000    0.180202178717
     13   S      30            27.8655000    0.465064284210
     13   S      31             8.4447000    0.452433138251

     14   S      32            13.6123000   -0.151660908297
     14   S      33             1.2612200    1.053515343452

     15   S      34             0.3708000    1.000000000000

     16   P      35            21.9305000    0.070356827475
     16   P      36             4.7855200    0.356742371235
     16   P      37             1.2837800    0.719732016372

     17   P      38             0.3115580    1.000000000000

     18   D      39             1.1000000    1.000000000000

 H         

     19   S      40            12.2518000    0.037217389296
     19   S      41             1.8687100    0.253808206955
     19   S      42             0.4182080    0.797386763917

     20   S      43             0.1061000    1.000000000000

     21   P      44             1.0000000    1.000000000000

 H         

     22   S      45            12.2518000    0.037217389296
     22   S      46             1.8687100    0.253808206955
     22   S      47             0.4182080    0.797386763917

     23   S      48             0.1061000    1.000000000000

     24   P      49             1.0000000    1.000000000000

 F         

     25   S      50          2931.5500000    0.005390132259
     25   S      51           441.1250000    0.040296704072
     25   S      52           100.2320000    0.180202178717
     25   S      53            27.8655000    0.465064284210
     25   S      54             8.4447000    0.452433138251

     26   S      55            13.6123000   -0.151660908297
     26   S      56             1.2612200    1.053515343452

     27   S      57             0.3708000    1.000000000000

     28   P      58            21.9305000    0.070356827475
     28   P      59             4.7855200    0.356742371235
     28   P      60             1.2837800    0.719732016372

     29   P      61             0.3115580    1.000000000000

     30   D      62             1.1000000    1.000000000000

 H         

     31   S      63            12.2518000    0.037217389296
     31   S      64             1.8687100    0.253808206955
     31   S      65             0.4182080    0.797386763917

     32   S      66             0.1061000    1.000000000000

     33   P      67             1.0000000    1.000000000000

 H         

     34   S      68            12.2518000    0.037217389296
     34   S      69             1.8687100    0.253808206955
     34   S      70             0.4182080    0.797386763917

     35   S      71             0.1061000    1.000000000000

     36   P      72             1.0000000    1.000000000000

 TOTAL NUMBER OF BASIS SET SHELLS             =   36
 NUMBER OF CARTESIAN GAUSSIAN BASIS FUNCTIONS =   80
 NOTE: THIS RUN WILL RESTRICT THE MO VARIATION SPACE TO SPHERICAL HARMONICS.
 THE NUMBER OF ORBITALS KEPT IN THE VARIATIONAL SPACE WILL BE PRINTED LATER.
 NUMBER OF ELECTRONS                          =   34
 CHARGE OF MOLECULE                           =    0
 SPIN MULTIPLICITY                            =    1
 NUMBER OF OCCUPIED ORBITALS (ALPHA)          =   17
 NUMBER OF OCCUPIED ORBITALS (BETA )          =   17
 TOTAL NUMBER OF ATOMS                        =    8
 THE NUCLEAR REPULSION ENERGY IS      124.6609206046

     LEBEDEV GRID-BASED DFT OPTIONS
     ------------------------------
     DFTTYP=PBE     
     NRAD  =      96     NLEB  =     302
     NRAD0 =      96     NLEB0 =     302
     SWOFF =    5.00E-03 (PURE SCF -> DFT)
     SWITCH=    3.00E-04 (COARSE -> TIGHT GRID)
     THRESH=    0.00E+00 GTHRE=    1.00E+00

 GRIMME'S EMPIRICAL DISPERSION CORRECTION= F

     $CONTRL OPTIONS
     ---------------
 SCFTYP=RHF          RUNTYP=HESSIAN      EXETYP=RUN     
 MPLEVL=       0     CITYP =NONE         CCTYP =NONE         VBTYP =NONE    
 DFTTYP=PBE          TDDFT =NONE    
 MULT  =       1     ICHARG=       0     NZVAR =      18     COORD =ZMT     
 PP    =NONE         RELWFN=NONE         LOCAL =NONE         NUMGRD=       F
 ISPHER=       1     NOSYM =       0     MAXIT =      30     UNITS =ANGS    
 PLTORB=       F     MOLPLT=       F     AIMPAC=       F     FRIEND=        
 NPRINT=       7     IREST =       0     GEOM  =INPUT   
 NORMF =       0     NORMP =       0     ITOL  =      20     ICUT  =       9
 INTTYP=BEST         GRDTYP=BEST         QMTTOL= 1.0E-06

     $SYSTEM OPTIONS
     ---------------
  REPLICATED MEMORY=     1000000 WORDS (ON EVERY NODE).
 DISTRIBUTED MEMDDI=           0 MILLION WORDS IN AGGREGATE,
 MEMDDI DISTRIBUTED OVER   1 PROCESSORS IS           0 WORDS/PROCESSOR.
 TOTAL MEMORY REQUESTED ON EACH PROCESSOR=     1000000 WORDS.
 TIMLIM=      525600.00 MINUTES, OR     365.0 DAYS.
 PARALL= F  BALTYP=  DLB     KDIAG=    0  COREFL= F
 MXSEQ2=     300 MXSEQ3=     150  mem10=         0

          ----------------
          PROPERTIES INPUT
          ----------------

     MOMENTS            FIELD           POTENTIAL          DENSITY
 IEMOM =       1   IEFLD =       0   IEPOT =       0   IEDEN =       0
 WHERE =COMASS     WHERE =NUCLEI     WHERE =NUCLEI     WHERE =NUCLEI  
 OUTPUT=BOTH       OUTPUT=BOTH       OUTPUT=BOTH       OUTPUT=BOTH    
 IEMINT=       0   IEFINT=       0                     IEDINT=       0
                                                       MORB  =       0
          EXTRAPOLATION IN EFFECT
          DIIS IN EFFECT
 ORBITAL PRINTING OPTION: NPREO=     1    80     2     1

     -------------------------------
     INTEGRAL TRANSFORMATION OPTIONS
     -------------------------------
     NWORD  =            0
     CUTOFF = 1.0E-09     MPTRAN =       0
     DIRTRF =       F     AOINTS =DUP     

          ----------------------
          INTEGRAL INPUT OPTIONS
          ----------------------
 NOPK  =       1 NORDER=       0 SCHWRZ=       T

     ------------------------------------------
     THE POINT GROUP IS C1 , NAXIS= 0, ORDER= 1
     ------------------------------------------

 -- VARIATIONAL SPACE WILL BE RESTRICTED TO PURE SPHERICAL HARMONICS ONLY --
 AFTER EXCLUDING CONTAMINANT COMBINATIONS FROM THE CARTESIAN GAUSSIAN BASIS
 SET, THE NUMBER OF SPHERICAL HARMONICS KEPT IN THE VARIATION SPACE IS   76

     DIMENSIONS OF THE SYMMETRY SUBSPACES ARE
 A   =   76

 ..... DONE SETTING UP THE RUN .....
 STEP CPU TIME =     0.05 TOTAL CPU TIME =          0.1 (      0.0 MIN)
 TOTAL WALL CLOCK TIME=          0.5 SECONDS, CPU UTILIZATION IS    10.20%

     ---------------------------------
     HESSIAN MATRIX CONTROL PARAMETERS
     ---------------------------------
     METHOD=SEMINUM    NVIB  =       2   VIBSIZ= 0.01000
     RDHESS=       F   PURIFY=       F   PRTIFC=       F
     VIBANL=       T   DECOMP=       F   PROJCT=       F
     SCLFAC= 1.00000   PRTSCN=       F   NPRT  =       0
     PULCOR=       F   NPUN  =       0   REDOVB=       T
     HSSTYP=GENERAL 
     THERMOCHEMISTRY WILL BE PRINTED FOR    1 TEMPERATURES:
      298.15000

               * * * EFFICIENCY NOTE * * *
 THIS CALCULATION CAN BE RUN WITH DIFFERENTIATION METHOD=ANALYTIC
 THIS MIGHT BE MORE ACCURATE AND/OR FASTER THAN YOUR CHOICE,
 BUT THE REQUESTED CALCULATION METHOD=SEMINUM  IS PROCEEDING.


   --- ENCODED Z MATRIX ---
 COORD  TYPE   I   J   K   L   M   N
    1      1    2   1
    2      1    3   2
    3      2    3   2   1
    4      1    4   2
    5      2    4   2   1
    6      3    4   2   1   3
    7      1    5   2
    8      2    5   2   1
    9      3    5   2   1   3
   10      1    6   1
   11      2    6   1   2
   12      3    6   1   2   3
   13      1    7   1
   14      2    7   1   2
   15      3    7   1   2   6
   16      1    8   1
   17      2    8   1   2
   18      3    8   1   2   6

 THE DETERMINANT OF THE G MATRIX IS 10**(   -12)


                     --------------------
                     INTERNAL COORDINATES
                     --------------------

                 - - ATOMS - -         COORDINATE      COORDINATE
 NO.   TYPE    I  J  K  L  M  N        (BOHR,RAD)       (ANG,DEG)
 ----------------------------------------------------------------
   1 STRETCH   2  1                     2.8849473       1.5266485
   2 STRETCH   3  2                     2.6487427       1.4016544
   3 BEND      3  2  1                  1.9230509     110.1827030
   4 STRETCH   4  2                     2.0906938       1.1063476
   5 BEND      4  2  1                  1.9690614     112.8189076
   6 TORSION   4  2  1  3               2.0923878     119.8849908
   7 STRETCH   5  2                     2.0921789       1.1071335
   8 BEND      5  2  1                  1.8899322     108.2851360
   9 TORSION   5  2  1  3              -2.0747851    -118.8764316
  10 STRETCH   6  1                     2.6487645       1.4016659
  11 BEND      6  1  2                  1.9233846     110.2018205
  12 TORSION   6  1  2  3               2.1699248     124.3275333
  13 STRETCH   7  1                     2.0906475       1.1063231
  14 BEND      7  1  2                  1.9693018     112.8326799
  15 TORSION   7  1  2  6               2.0922699     119.8782364
  16 STRETCH   8  1                     2.0920230       1.1070510
  17 BEND      8  1  2                  1.8900828     108.2937696
  18 TORSION   8  1  2  6              -2.0739622    -118.8292798
1   ATOM  0
                                        -------------------
   COORD  0                             NUCLEAR COORDINATES
                                        -------------------
     VIB  0

                       ATOM             X              Y              Z

                 1  C               -1.132543       0.891787       0.644125
                 2  C                1.132865      -0.894505       0.640911
                 3  F                3.211695       0.268070      -0.517849
                 4  H                1.726885      -1.454122       2.565740
                 5  H                0.620113      -2.602957      -0.452473
                 6  F               -3.211858      -0.265872      -0.518728
                 7  H               -1.727087       1.444528       2.570729
                 8  H               -0.620656       2.603474      -0.444295

          ********************
          1 ELECTRON INTEGRALS
          ********************
 ...... END OF ONE-ELECTRON INTEGRALS ......
 STEP CPU TIME =     0.01 TOTAL CPU TIME =          0.1 (      0.0 MIN)
 TOTAL WALL CLOCK TIME=          0.5 SECONDS, CPU UTILIZATION IS    11.54%

          -------------
          GUESS OPTIONS
          -------------
          GUESS =HUCKEL            NORB  =       0          NORDER=       0
          MIX   =       F          PRTMO =       F          PUNMO =       F
          TOLZ  = 1.0E-08          TOLE  = 1.0E-05
          SYMDEN=       F          PURIFY=       F

 INITIAL GUESS ORBITALS GENERATED BY HUCKEL   ROUTINE.
 HUCKEL GUESS REQUIRES     54920 WORDS.

 STATISTICS FOR GENERATION OF SYMMETRY ORBITAL -Q- MATRIX
 NUMBER OF CARTESIAN ATOMIC ORBITALS=         80
 NUMBER OF SPHERICAL CONTAMINANTS DROPPED=     4
 NUMBER OF LINEARLY DEPENDENT MOS DROPPED=     0
 TOTAL NUMBER OF MOS IN VARIATION SPACE=      76

 SYMMETRIES FOR INITIAL GUESS ORBITALS FOLLOW.   BOTH SET(S).
    17 ORBITALS ARE OCCUPIED (    4 CORE ORBITALS).
     5=A        6=A        7=A        8=A        9=A       10=A       11=A   
    12=A       13=A       14=A       15=A       16=A       17=A       18=A   
    19=A       20=A       21=A       22=A       23=A       24=A       25=A   
    26=A       27=A   
 ...... END OF INITIAL ORBITAL SELECTION ......
 STEP CPU TIME =     0.01 TOTAL CPU TIME =          0.1 (      0.0 MIN)
 TOTAL WALL CLOCK TIME=          0.6 SECONDS, CPU UTILIZATION IS    11.29%

                    ----------------------
                    AO INTEGRAL TECHNOLOGY
                    ----------------------
     S,P,L SHELL ROTATED AXIS INTEGRALS, REPROGRAMMED BY
        KAZUYA ISHIMURA (IMS) AND JOSE SIERRA (SYNSTAR).
     S,P,D,L SHELL ROTATED AXIS INTEGRALS PROGRAMMED BY
        KAZUYA ISHIMURA (INSTITUTE FOR MOLECULAR SCIENCE).
     S,P,D,F,G SHELL TO TOTAL QUARTET ANGULAR MOMENTUM SUM 5,
        ERIC PROGRAM BY GRAHAM FLETCHER (ELORET AND NASA ADVANCED
        SUPERCOMPUTING DIVISION, AMES RESEARCH CENTER).
     S,P,D,F,G,L SHELL GENERAL RYS QUADRATURE PROGRAMMED BY
        MICHEL DUPUIS (PACIFIC NORTHWEST NATIONAL LABORATORY).

          --------------------
          2 ELECTRON INTEGRALS
          --------------------

 THE -PK- OPTION IS OFF, THE INTEGRALS ARE NOT IN SUPERMATRIX FORM.
 STORING   15000 INTEGRALS/RECORD ON DISK, USING 12 BYTES/INTEGRAL.
 TWO ELECTRON INTEGRAL EVALUATION REQUIRES   91062 WORDS OF MEMORY.
 SCHWARZ INEQUALITY OVERHEAD:      3217 INTEGRALS, T=        0.01
 II,JST,KST,LST =  1  1  1  1 NREC =         1 INTLOC =    1
 II,JST,KST,LST =  2  1  1  1 NREC =         1 INTLOC =    2
 II,JST,KST,LST =  3  1  1  1 NREC =         1 INTLOC =    7
 II,JST,KST,LST =  4  1  1  1 NREC =         1 INTLOC =   22
 II,JST,KST,LST =  5  1  1  1 NREC =         1 INTLOC =   67
 II,JST,KST,LST =  6  1  1  1 NREC =         1 INTLOC =  214
 II,JST,KST,LST =  7  1  1  1 NREC =         1 INTLOC = 1189
 II,JST,KST,LST =  8  1  1  1 NREC =         1 INTLOC = 3190
 II,JST,KST,LST =  9  1  1  1 NREC =         1 INTLOC = 5650
 II,JST,KST,LST = 10  1  1  1 NREC =         1 INTLOC = 8571
 II,JST,KST,LST = 11  1  1  1 NREC =         2 INTLOC = 5472
 II,JST,KST,LST = 12  1  1  1 NREC =         3 INTLOC = 8135
 II,JST,KST,LST = 13  1  1  1 NREC =         7 INTLOC = 6004
 II,JST,KST,LST = 14  1  1  1 NREC =         8 INTLOC = 4160
 II,JST,KST,LST = 15  1  1  1 NREC =         9 INTLOC = 4895
 II,JST,KST,LST = 16  1  1  1 NREC =        10 INTLOC = 7739
 II,JST,KST,LST = 17  1  1  1 NREC =        14 INTLOC = 9396
 II,JST,KST,LST = 18  1  1  1 NREC =        20 INTLOC =  352
 II,JST,KST,LST = 19  1  1  1 NREC =        34 INTLOC =10646
 II,JST,KST,LST = 20  1  1  1 NREC =        37 INTLOC =13817
 II,JST,KST,LST = 21  1  1  1 NREC =        41 INTLOC = 5346
 II,JST,KST,LST = 22  1  1  1 NREC =        52 INTLOC =14065
 II,JST,KST,LST = 23  1  1  1 NREC =        57 INTLOC = 4810
 II,JST,KST,LST = 24  1  1  1 NREC =        61 INTLOC =14680
 II,JST,KST,LST = 25  1  1  1 NREC =        77 INTLOC = 6488
 II,JST,KST,LST = 26  1  1  1 NREC =        80 INTLOC =10139
 II,JST,KST,LST = 27  1  1  1 NREC =        85 INTLOC =   10
 II,JST,KST,LST = 28  1  1  1 NREC =        91 INTLOC =  882
 II,JST,KST,LST = 29  1  1  1 NREC =       106 INTLOC = 1406
 II,JST,KST,LST = 30  1  1  1 NREC =       128 INTLOC =14417
 II,JST,KST,LST = 31  1  1  1 NREC =       173 INTLOC =13426
 II,JST,KST,LST = 32  1  1  1 NREC =       184 INTLOC =10252
 II,JST,KST,LST = 33  1  1  1 NREC =       196 INTLOC = 4661
 II,JST,KST,LST = 34  1  1  1 NREC =       229 INTLOC = 4443
 II,JST,KST,LST = 35  1  1  1 NREC =       242 INTLOC =10854
 II,JST,KST,LST = 36  1  1  1 NREC =       256 INTLOC =14426
 SCHWARZ INEQUALITY TEST SKIPPED       18085 INTEGRAL BLOCKS.
 TOTAL NUMBER OF NONZERO TWO-ELECTRON INTEGRALS =             4485039
        300 INTEGRAL RECORDS WERE STORED ON DISK FILE  8.
  ...... END OF TWO-ELECTRON INTEGRALS .....
 STEP CPU TIME =     0.49 TOTAL CPU TIME =          0.6 (      0.0 MIN)
 TOTAL WALL CLOCK TIME=          1.2 SECONDS, CPU UTILIZATION IS    45.90%

          --------------------------
               R-PBE SCF CALCULATION
          --------------------------

     NUCLEAR ENERGY =       124.6609206046
     MAXIT =   30     NPUNCH=    2
     EXTRAP=T  DAMP=F  SHIFT=F  RSTRCT=F  DIIS=T  DEM=F  SOSCF=F
         DENSITY MATRIX CONVERGENCE THRESHOLD=  1.00E-05
     COARSE -> FINE DFT GRID SWITCH THRESHOLD=  3.00E-04 (SWITCH IN $DFT)
                   HF -> DFT SWITCH THRESHOLD=  5.00E-03 (SWOFF IN $DFT)
     MEMORY REQUIRED FOR RHF ITERS=    365468 WORDS.

     EXCHANGE FUNCTIONAL   =PBE       
     CORRELATION FUNCTIONAL=PBE       
     DFT THRESHOLD         =.431E-08
 FOR AN EULER-MACLAURIN QUADRATURE USING  96 RADIAL POINTS:
 SMALLEST GAUSSIAN PRIMITIVE EXPONENT=        0.1061000000 OF TYPE -S-
 ON ATOM NUMBER   4 HAS RADIAL NORMALIZATION=  1.000000
  LARGEST GAUSSIAN PRIMITIVE EXPONENT=     2931.5500000000 OF TYPE -S-
 ON ATOM NUMBER   3 HAS RADIAL NORMALIZATION=  1.000000
 DFT IS SWITCHED OFF, PERFORMING PURE SCF UNTIL SWOFF THRESHOLD IS REACHED.

 ITER EX DEM     TOTAL ENERGY        E CHANGE  DENSITY CHANGE    DIIS ERROR
   1  0  0     -276.1208087135  -276.1208087135   0.175926981   0.744755154
          * * *   INITIATING DIIS PROCEDURE   * * *
   2  1  0     -276.7876983137    -0.6668896002   0.073538195   0.081382435
   3  2  0     -276.8281495051    -0.0404511913   0.036378069   0.034246649
   4  3  0     -276.8399601352    -0.0118106301   0.008853617   0.011962905
   5  4  0     -276.8407101144    -0.0007499792   0.001535234   0.001786445
 CONVERGED TO SWOFF, SO DFT CALCULATION IS NOW SWITCHED ON.
          * * *   INITIATING DIIS PROCEDURE   * * *
   6  5  0     -277.9058946368    -1.0651845223   0.092094430   0.087422316
   7  6  0     -277.9212376277    -0.0153429909   0.060521633   0.043324576
   8  7  0     -277.9203549845     0.0008826432   0.035104785   0.039838192
   9  8  0     -277.9331450402    -0.0127900557   0.004504512   0.004687508
  10  9  0     -277.9333046371    -0.0001595969   0.000786511   0.000909193
  11 10  0     -277.9333087134    -0.0000040764   0.000092152   0.000113636
  12 11  0     -277.9333087504    -0.0000000370   0.000013916   0.000010213
  13 12  0     -277.9333087513    -0.0000000009   0.000002232   0.000002612
  14 13  0     -277.9333087513    -0.0000000000   0.000000530   0.000000315

          -----------------
          DENSITY CONVERGED
          -----------------
     TIME TO FORM FOCK OPERATORS=       9.2 SECONDS (       0.7 SEC/ITER)
     TIME TO SOLVE SCF EQUATIONS=       0.0 SECONDS (       0.0 SEC/ITER)

 FINAL R-PBE ENERGY IS     -277.9333087513 AFTER  14 ITERATIONS
 DFT EXCHANGE + CORRELATION ENERGY =       -32.9229288466
 TOTAL ELECTRON NUMBER             =        33.9996699497

          ------------
          EIGENVECTORS
          ------------

                      1          2          3          4          5
                  -24.2357   -24.2357    -9.9706    -9.9705    -1.0999
                     A          A          A          A          A   
    1  C  1  S    0.000057  -0.000133   0.555199   0.823682  -0.051470
    2  C  1  S    0.000253  -0.000588   0.019821   0.031164   0.095778
    3  C  1  S   -0.004142   0.009529  -0.007180  -0.020894   0.022821
    4  C  1  X   -0.000237  -0.001012  -0.001079  -0.000389  -0.042856
    5  C  1  Y    0.000208  -0.000388   0.000470  -0.000406  -0.037065
    6  C  1  Z   -0.000017  -0.000504  -0.000150  -0.000302  -0.032955
    7  C  1  X   -0.002021  -0.002181   0.000032  -0.003597  -0.001508
    8  C  1  Y   -0.000047  -0.002972  -0.001491   0.001805  -0.007933
    9  C  1  Z    0.001362  -0.002207  -0.000053  -0.000429  -0.001875
   10  C  1 XX   -0.000109   0.000115  -0.000432   0.000172   0.008239
   11  C  1 YY    0.000102  -0.000060  -0.000101  -0.000048  -0.003227
   12  C  1 ZZ    0.000007  -0.000055   0.000532  -0.000124  -0.005012
   13  C  1 XY    0.000048   0.000231   0.000881  -0.000137   0.006433
   14  C  1 XZ    0.000010   0.000161  -0.000018  -0.000030   0.008599
   15  C  1 YZ   -0.000095   0.000134   0.000007   0.000062   0.005565
   16  C  2  S   -0.000136   0.000050   0.823789  -0.555039  -0.051734
   17  C  2  S   -0.000600   0.000221   0.030070  -0.021444   0.096287
   18  C  2  S    0.009737  -0.003615  -0.014498   0.016670   0.022783
   19  C  2  X    0.000997   0.000292   0.001146   0.000045   0.043296
   20  C  2  Y    0.000400  -0.000187  -0.000282  -0.000554   0.037413
   21  C  2  Z   -0.000501  -0.000045  -0.000253   0.000221  -0.033026
   22  C  2  X    0.002065   0.002138   0.001322  -0.003346   0.001616
   23  C  2  Y    0.002976   0.000206   0.000706   0.002231   0.007893
   24  C  2  Z   -0.002265   0.001241  -0.000210   0.000387  -0.001881
   25  C  2 XX    0.000120  -0.000103  -0.000336  -0.000321   0.008266
   26  C  2 YY   -0.000064   0.000098  -0.000110   0.000006  -0.003203
   27  C  2 ZZ   -0.000056   0.000005   0.000446   0.000316  -0.005063
   28  C  2 XY    0.000228   0.000061   0.000766   0.000457   0.006538
   29  C  2 XZ   -0.000159  -0.000019   0.000030  -0.000019  -0.008640
   30  C  2 YZ   -0.000139   0.000088  -0.000033   0.000054  -0.005595
   31  F  3  S    0.992711   0.027226   0.000056  -0.000031  -0.167497
   32  F  3  S    0.034014   0.000876   0.000329  -0.000322   0.340778
   33  F  3  S   -0.016917  -0.000213  -0.000740   0.000258   0.348333
   34  F  3  X   -0.000926  -0.000020   0.000271  -0.000087  -0.056645
   35  F  3  Y   -0.000536  -0.000038   0.000095  -0.000045  -0.029681
   36  F  3  Z    0.000516   0.000026  -0.000119   0.000040   0.030698
   37  F  3  X    0.002981  -0.000185   0.001017  -0.000859  -0.025484
   38  F  3  Y    0.001678   0.000065   0.000915  -0.000560  -0.013925
   39  F  3  Z   -0.001617  -0.000141  -0.000777   0.000533   0.014280
   40  F  3 XX   -0.000181  -0.000001  -0.000388   0.000358   0.003936
   41  F  3 YY    0.000110   0.000024   0.000205  -0.000138  -0.001892
   42  F  3 ZZ    0.000072  -0.000023   0.000183  -0.000220  -0.002045
   43  F  3 XY   -0.000314   0.000032  -0.000679   0.000320   0.005108
   44  F  3 XZ    0.000267  -0.000002   0.000624  -0.000436  -0.005333
   45  F  3 YZ    0.000136   0.000035   0.000375  -0.000245  -0.002938
   46  H  4  S   -0.000935   0.000117  -0.001242   0.000414   0.016669
   47  H  4  S   -0.000032  -0.000592   0.002858  -0.001631   0.000274
   48  H  4  X   -0.000207  -0.000092   0.000155  -0.000159  -0.000420
   49  H  4  Y   -0.000248  -0.000041  -0.000266   0.000182   0.001123
   50  H  4  Z    0.000217  -0.000031   0.001052  -0.000675  -0.003805
   51  H  5  S   -0.000985   0.000382  -0.001052   0.000419   0.019087
   52  H  5  S   -0.000390   0.000907   0.003458  -0.001217   0.005421
   53  H  5  X   -0.000266   0.000080  -0.000442   0.000114   0.000878
   54  H  5  Y   -0.000292  -0.000024  -0.000795   0.000623   0.004046
   55  H  5  Z    0.000161   0.000006  -0.000540   0.000347   0.001846
   56  F  6  S   -0.027232   0.992710   0.000040   0.000050  -0.166326
   57  F  6  S   -0.000990   0.034012   0.000184   0.000421   0.338394
   58  F  6  S    0.000715  -0.016905  -0.000589  -0.000516   0.345882
   59  F  6  X   -0.000030   0.000926  -0.000219  -0.000183   0.056280
   60  F  6  Y    0.000008   0.000535  -0.000071  -0.000077   0.029342
   61  F  6  Z   -0.000002   0.000518  -0.000096  -0.000082   0.030590
   62  F  6  X    0.000348  -0.002968  -0.000620  -0.001177   0.025306
   63  F  6  Y    0.000027  -0.001673  -0.000635  -0.000859   0.013779
   64  F  6  Z   -0.000052  -0.001628  -0.000522  -0.000788   0.014229
   65  F  6 XX    0.000009  -0.000181  -0.000226  -0.000478   0.003914
   66  F  6 YY    0.000018   0.000112   0.000140   0.000207  -0.001900
   67  F  6 ZZ   -0.000027   0.000069   0.000086   0.000271  -0.002014
   68  F  6 XY    0.000049  -0.000310  -0.000507  -0.000549   0.005051
   69  F  6 XZ    0.000017  -0.000268  -0.000417  -0.000641   0.005316
   70  F  6 YZ   -0.000027  -0.000137  -0.000255  -0.000368   0.002916
   71  H  7  S    0.000168  -0.000927  -0.000996  -0.000850   0.016572
   72  H  7  S   -0.000589  -0.000064   0.002036   0.002585   0.000265
   73  H  7  X    0.000081   0.000211  -0.000085  -0.000206   0.000417
   74  H  7  Y    0.000027   0.000249   0.000176   0.000265  -0.001100
   75  H  7  Z   -0.000042   0.000216   0.000722   0.001022  -0.003787
   76  H  8  S    0.000435  -0.000964  -0.000818  -0.000783   0.019026
   77  H  8  S    0.000927  -0.000343   0.002749   0.002427   0.005453
   78  H  8  X   -0.000094   0.000260   0.000367   0.000271  -0.000862
   79  H  8  Y    0.000008   0.000292   0.000505   0.000877  -0.004038
   80  H  8  Z   -0.000003   0.000162  -0.000369  -0.000522   0.001827

                      6          7          8          9         10
                   -1.0938    -0.7002    -0.5821    -0.4679    -0.4669
                     A          A          A          A          A   
    1  C  1  S   -0.039156  -0.149618  -0.125905  -0.002904   0.003147
    2  C  1  S    0.075989   0.308021   0.274759  -0.000264   0.000837
    3  C  1  S   -0.007209   0.175310   0.134740   0.017865  -0.041146
    4  C  1  X   -0.065740   0.097265  -0.074297  -0.057783  -0.159910
    5  C  1  Y   -0.029918  -0.042828   0.110720   0.030834  -0.224755
    6  C  1  Z   -0.029830   0.019715   0.007640   0.293112  -0.010055
    7  C  1  X   -0.015582   0.036796  -0.007628  -0.037243  -0.026736
    8  C  1  Y    0.006214  -0.000729   0.045857  -0.008417  -0.084238
    9  C  1  Z   -0.003966   0.011360   0.021353   0.116781   0.028752
   10  C  1 XX    0.004704   0.002004   0.000811   0.001168  -0.001781
   11  C  1 YY   -0.002295   0.002370  -0.004220  -0.002577   0.006474
   12  C  1 ZZ   -0.002410  -0.004375   0.003409   0.001409  -0.004693
   13  C  1 XY    0.010332  -0.008795   0.008520  -0.002212   0.007598
   14  C  1 XZ    0.009597  -0.000408   0.001056  -0.001322   0.007142
   15  C  1 YZ    0.004952  -0.000114  -0.000466  -0.007108   0.008743
   16  C  2  S    0.038801  -0.149640   0.125880  -0.002996  -0.003038
   17  C  2  S   -0.075331   0.308056  -0.274716  -0.000351  -0.000832
   18  C  2  S    0.007374   0.175411  -0.134719   0.019369   0.040472
   19  C  2  X   -0.065427  -0.097277  -0.074281   0.051506  -0.162327
   20  C  2  Y   -0.029793   0.042728   0.110745  -0.040565  -0.223580
   21  C  2  Z    0.029500   0.019892  -0.007308   0.293063  -0.002131
   22  C  2  X   -0.015567  -0.036815  -0.007662   0.036201  -0.028236
   23  C  2  Y    0.006258   0.000677   0.045928   0.004747  -0.084393
   24  C  2  Z    0.003977   0.011349  -0.021194   0.115584  -0.033599
   25  C  2 XX   -0.004642   0.002006  -0.000809   0.001232   0.001719
   26  C  2 YY    0.002237   0.002370   0.004219  -0.002871  -0.006409
   27  C  2 ZZ    0.002405  -0.004376  -0.003410   0.001639   0.004691
   28  C  2 XY   -0.010324  -0.008793  -0.008530  -0.002510  -0.007546
   29  C  2 XZ    0.009500   0.000376   0.001029   0.001583   0.007072
   30  C  2 YZ    0.004917   0.000139  -0.000432   0.007432   0.008422
   31  F  3  S    0.169583   0.060366  -0.046653  -0.016422  -0.035137
   32  F  3  S   -0.344744  -0.131157   0.102538   0.034220   0.073663
   33  F  3  S   -0.356198  -0.155314   0.123448   0.052897   0.110331
   34  F  3  X    0.054461  -0.089774   0.113443   0.207231   0.267754
   35  F  3  Y    0.029910  -0.027732   0.124658   0.047623   0.018926
   36  F  3  Z   -0.030635   0.042159  -0.084413   0.103568  -0.189091
   37  F  3  X    0.026609  -0.050132   0.068744   0.126760   0.165888
   38  F  3  Y    0.012573  -0.018962   0.075192   0.026075   0.010082
   39  F  3  Z   -0.014381   0.023729  -0.051209   0.061466  -0.113449
   40  F  3 XX   -0.003766   0.003887  -0.000642  -0.009454  -0.006401
   41  F  3 YY    0.001887  -0.002218  -0.000334   0.001142   0.006288
   42  F  3 ZZ    0.001879  -0.001669   0.000977   0.008312   0.000113
   43  F  3 XY   -0.004969   0.002532  -0.007501  -0.003889  -0.000569
   44  F  3 XZ    0.005236  -0.003814   0.004425  -0.002236   0.008813
   45  F  3 YZ    0.002813  -0.001423   0.004214  -0.002756   0.002059
   46  H  4  S   -0.015345   0.110252  -0.156994   0.204878   0.012483
   47  H  4  S   -0.001767  -0.002357  -0.005722   0.030935   0.015353
   48  H  4  X    0.000561  -0.004682   0.002761  -0.003889  -0.003146
   49  H  4  Y   -0.001375   0.003165  -0.001332   0.004103  -0.004379
   50  H  4  Z    0.003246  -0.009708   0.012311  -0.007432  -0.000578
   51  H  5  S   -0.011809   0.108011  -0.164503  -0.086372   0.155614
   52  H  5  S    0.003165  -0.011206  -0.018628   0.005587   0.006249
   53  H  5  X   -0.001990   0.001710  -0.004253   0.000665  -0.002120
   54  H  5  Y   -0.002211   0.008979  -0.009701  -0.006901   0.005119
   55  H  5  Z   -0.001170   0.006228  -0.007686   0.003110   0.005545
   56  F  6  S   -0.170728   0.060360   0.046686  -0.015034   0.035698
   57  F  6  S    0.347072  -0.131146  -0.102611   0.031310  -0.074834
   58  F  6  S    0.358581  -0.155284  -0.123529   0.048539  -0.112146
   59  F  6  X    0.054860   0.089752   0.113555  -0.196672   0.275295
   60  F  6  Y    0.029979   0.027549   0.124332  -0.047147   0.019744
   61  F  6  Z    0.030951   0.042236   0.084865   0.110662   0.184591
   62  F  6  X    0.026788   0.050125   0.068810  -0.120225   0.170505
   63  F  6  Y    0.012606   0.018862   0.074994  -0.025841   0.010478
   64  F  6  Z    0.014522   0.023783   0.051481   0.065733   0.110770
   65  F  6 XX    0.003797   0.003887   0.000649  -0.009200   0.006764
   66  F  6 YY   -0.001921  -0.002227   0.000303   0.000881  -0.006337
   67  F  6 ZZ   -0.001876  -0.001660  -0.000952   0.008319  -0.000427
   68  F  6 XY    0.004981   0.002516   0.007486  -0.003869   0.000675
   69  F  6 XZ    0.005291   0.003821   0.004454   0.002565   0.008710
   70  F  6 YZ    0.002831   0.001419   0.004217   0.002804   0.001914
   71  H  7  S    0.015467   0.110217   0.157001   0.204327  -0.020445
   72  H  7  S    0.001766  -0.002358   0.005715   0.030341  -0.016550
   73  H  7  X    0.000566   0.004683   0.002764   0.003766  -0.003287
   74  H  7  Y   -0.001371  -0.003130  -0.001289  -0.004245  -0.004211
   75  H  7  Z   -0.003277  -0.009715  -0.012316  -0.007422   0.000852
   76  H  8  S    0.011955   0.107985   0.164545  -0.092419  -0.151901
   77  H  8  S   -0.003127  -0.011191   0.018618   0.005336  -0.006372
   78  H  8  X   -0.001995  -0.001705  -0.004246  -0.000750  -0.002090
   79  H  8  Y   -0.002243  -0.008996  -0.009727   0.007086   0.004856
   80  H  8  Z    0.001177   0.006199   0.007659   0.002914  -0.005638

                     11         12         13         14         15
                   -0.4432    -0.4088    -0.4059    -0.3372    -0.3026
                     A          A          A          A          A   
    1  C  1  S   -0.004634  -0.009746   0.009897   0.033188   0.000931
    2  C  1  S    0.004449   0.012533  -0.017932  -0.069449  -0.005470
    3  C  1  S    0.022521   0.044086  -0.039069  -0.146618   0.003957
    4  C  1  X    0.285795   0.007534   0.025977  -0.060259   0.003517
    5  C  1  Y   -0.082460   0.277660   0.006390  -0.028302   0.127165
    6  C  1  Z    0.036497  -0.036131  -0.251533  -0.032840  -0.132730
    7  C  1  X    0.079193  -0.024168   0.026132  -0.051823  -0.012166
    8  C  1  Y   -0.062688   0.101355   0.016232   0.017870   0.052293
    9  C  1  Z    0.002301  -0.028858  -0.097099  -0.009315  -0.034941
   10  C  1 XX   -0.011213  -0.011360   0.000381   0.019449   0.000368
   11  C  1 YY    0.010474   0.002610  -0.001538  -0.010938   0.012798
   12  C  1 ZZ    0.000740   0.008750   0.001157  -0.008511  -0.013165
   13  C  1 XY   -0.011218  -0.009684   0.002257  -0.005578   0.009166
   14  C  1 XZ   -0.009166  -0.004297   0.018973   0.003770  -0.014294
   15  C  1 YZ   -0.002797  -0.007962  -0.002633  -0.006873  -0.005291
   16  C  2  S   -0.004618  -0.009866  -0.009773  -0.033146   0.000947
   17  C  2  S    0.004409   0.012768   0.017759   0.069364  -0.005493
   18  C  2  S    0.022530   0.044498   0.038519   0.146474   0.003887
   19  C  2  X   -0.285641  -0.007086   0.026194  -0.060028  -0.003674
   20  C  2  Y    0.082563  -0.277252   0.008560  -0.028546  -0.126827
   21  C  2  Z    0.036886  -0.034218   0.251961   0.032729  -0.133745
   22  C  2  X   -0.079190   0.024507   0.025908  -0.051785   0.012105
   23  C  2  Y    0.062823  -0.100989   0.017027   0.017750  -0.052139
   24  C  2  Z    0.002595  -0.028120   0.097513   0.009397  -0.035244
   25  C  2 XX   -0.011218  -0.011362  -0.000250  -0.019451   0.000394
   26  C  2 YY    0.010467   0.002582   0.001524   0.010987   0.012783
   27  C  2 ZZ    0.000751   0.008779  -0.001274   0.008464  -0.013177
   28  C  2 XY   -0.011250  -0.009710  -0.002208   0.005580   0.009150
   29  C  2 XZ    0.009126   0.004469   0.018911   0.003793   0.014316
   30  C  2 YZ    0.002829   0.007889  -0.002701  -0.006869   0.005434
   31  F  3  S   -0.026055  -0.008840  -0.006344  -0.000345   0.002831
   32  F  3  S    0.053249   0.016113   0.012065  -0.001733  -0.009351
   33  F  3  S    0.078688   0.024130   0.015500   0.002737  -0.006743
   34  F  3  X    0.141040   0.213964   0.211549  -0.212259   0.129280
   35  F  3  Y    0.284778  -0.120037   0.158468   0.383311   0.193161
   36  F  3  Z   -0.180663  -0.206660   0.192927  -0.169640   0.348913
   37  F  3  X    0.088123   0.130442   0.134924  -0.147089   0.081642
   38  F  3  Y    0.173927  -0.075891   0.101405   0.259109   0.140743
   39  F  3  Z   -0.111583  -0.132612   0.126356  -0.116108   0.246246
   40  F  3 XX    0.003291  -0.005732  -0.007402   0.009328  -0.003245
   41  F  3 YY   -0.003055   0.008718  -0.002154  -0.006830  -0.001247
   42  F  3 ZZ   -0.000235  -0.002986   0.009556  -0.002498   0.004492
   43  F  3 XY   -0.009199   0.002993  -0.007419  -0.004801  -0.004059
   44  F  3 XZ    0.004806   0.008355  -0.004420   0.000518  -0.004107
   45  F  3 YZ    0.007019  -0.000203  -0.002591   0.006115  -0.001051
   46  H  4  S   -0.042390   0.050810   0.203200   0.079837  -0.107033
   47  H  4  S   -0.009037   0.019539   0.060279   0.027349  -0.050526
   48  H  4  X   -0.004811  -0.001816  -0.001385  -0.003923   0.003996
   49  H  4  Y    0.000128  -0.005916   0.003559  -0.000903  -0.004826
   50  H  4  Z    0.004230  -0.003125  -0.006051  -0.002026   0.000174
   51  H  5  S    0.000145   0.200568  -0.094918   0.057696   0.193141
   52  H  5  S    0.024932   0.055877  -0.025219  -0.014611   0.081990
   53  H  5  X   -0.006806   0.005529  -0.002436   0.002728  -0.000327
   54  H  5  Y    0.000449   0.004000  -0.005335   0.000263   0.003529
   55  H  5  Z   -0.000008   0.005982   0.002423   0.003737   0.003180
   56  F  6  S   -0.026093  -0.008788   0.006449   0.000346   0.002840
   57  F  6  S    0.053328   0.016019  -0.012258   0.001727  -0.009377
   58  F  6  S    0.078822   0.024016  -0.015786  -0.002712  -0.006787
   59  F  6  X   -0.141459  -0.211860   0.213996  -0.211828  -0.129282
   60  F  6  Y   -0.283860   0.122731   0.157707   0.382571  -0.194131
   61  F  6  Z   -0.181917  -0.208457  -0.189794   0.171264   0.347320
   62  F  6  X   -0.088383  -0.129111   0.136426  -0.146791  -0.081630
   63  F  6  Y   -0.173361   0.077620   0.100940   0.258600  -0.141443
   64  F  6  Z   -0.112346  -0.133799  -0.124348   0.117215   0.245127
   65  F  6 XX    0.003275  -0.005657   0.007467  -0.009322  -0.003246
   66  F  6 YY   -0.002993   0.008747   0.002067   0.006783  -0.001247
   67  F  6 ZZ   -0.000281  -0.003091  -0.009534   0.002540   0.004492
   68  F  6 XY   -0.009179   0.003116   0.007398   0.004806  -0.004072
   69  F  6 XZ   -0.004854  -0.008401  -0.004297   0.000545   0.004082
   70  F  6 YZ   -0.007028   0.000226  -0.002541   0.006134   0.001025
   71  H  7  S   -0.042462   0.048481  -0.203753  -0.079790  -0.106368
   72  H  7  S   -0.009025   0.018846  -0.060503  -0.027325  -0.050175
   73  H  7  X    0.004811   0.001802  -0.001410  -0.003931  -0.003993
   74  H  7  Y   -0.000138   0.005970   0.003472  -0.000907   0.004814
   75  H  7  Z    0.004231  -0.003034   0.006094   0.002019   0.000181
   76  H  8  S    0.000310   0.201791   0.092736  -0.057634   0.192630
   77  H  8  S    0.024956   0.056204   0.024604   0.014647   0.081632
   78  H  8  X    0.006806  -0.005549  -0.002376   0.002725   0.000330
   79  H  8  Y   -0.000458  -0.004083  -0.005279   0.000279  -0.003525
   80  H  8  Z   -0.000008   0.005945  -0.002504  -0.003735   0.003180

                     16         17         18         19         20
                   -0.2881    -0.2847     0.0161     0.0241     0.0588
                     A          A          A          A          A   
    1  C  1  S   -0.000955   0.022781  -0.015436   0.053523   0.061994
    2  C  1  S    0.000617  -0.062138   0.062785  -0.084008  -0.136380
    3  C  1  S    0.031414  -0.101944  -0.260321  -0.892751  -0.768390
    4  C  1  X    0.072785  -0.194676  -0.244291   0.029741   0.093282
    5  C  1  Y    0.062534   0.189480  -0.186108  -0.127778  -0.082991
    6  C  1  Z   -0.186660   0.058243  -0.103833  -0.201866   0.217624
    7  C  1  X    0.042840  -0.030384  -0.472495   0.067880   0.081221
    8  C  1  Y   -0.002622   0.080308  -0.338345  -0.295884  -0.293752
    9  C  1  Z   -0.048009   0.020597  -0.142416  -0.429567   0.504621
   10  C  1 XX    0.006683  -0.015845  -0.030033  -0.004597   0.002555
   11  C  1 YY    0.006653   0.005663   0.026619  -0.010445   0.008628
   12  C  1 ZZ   -0.013337   0.010183   0.003414   0.015042  -0.011183
   13  C  1 XY    0.012544   0.013378  -0.019372  -0.002169   0.018533
   14  C  1 XZ   -0.000148  -0.001593  -0.016648  -0.015259   0.023651
   15  C  1 YZ   -0.012251   0.006108  -0.026530   0.008508  -0.016207
   16  C  2  S    0.000983   0.022800   0.015726   0.053490   0.063161
   17  C  2  S   -0.000701  -0.062150  -0.063304  -0.083768  -0.138646
   18  C  2  S   -0.031544  -0.102204   0.255982  -0.894591  -0.783020
   19  C  2  X    0.073037   0.194661  -0.244368  -0.028711  -0.094126
   20  C  2  Y    0.061324  -0.189717  -0.185799   0.129284   0.083484
   21  C  2  Z    0.186653   0.057280   0.102480  -0.201896   0.218330
   22  C  2  X    0.042929   0.030491  -0.472862  -0.065638  -0.083085
   23  C  2  Y   -0.003003  -0.080442  -0.337332   0.298855   0.295411
   24  C  2  Z    0.047963   0.020241   0.139879  -0.429277   0.505888
   25  C  2 XX   -0.006703  -0.015829   0.030001  -0.004720   0.002548
   26  C  2 YY   -0.006548   0.005709  -0.026497  -0.010284   0.008549
   27  C  2 ZZ    0.013251   0.010120  -0.003505   0.015004  -0.011096
   28  C  2 XY   -0.012510   0.013381   0.019443  -0.002311   0.018690
   29  C  2 XZ   -0.000151   0.001637  -0.016518   0.015320  -0.023593
   30  C  2 YZ   -0.012327  -0.006109  -0.026649  -0.008498   0.016219
   31  F  3  S    0.003206  -0.000017  -0.049859   0.015284  -0.016745
   32  F  3  S   -0.009485  -0.003420   0.097065  -0.032404   0.028672
   33  F  3  S   -0.011114   0.019413   0.382268  -0.105217   0.153536
   34  F  3  X   -0.030217  -0.271794  -0.181357   0.042726  -0.104794
   35  F  3  Y   -0.186734   0.284249  -0.096059  -0.022450  -0.143575
   36  F  3  Z   -0.336492  -0.107298   0.127359   0.032307   0.046755
   37  F  3  X   -0.029481  -0.194123  -0.182412   0.048657  -0.105251
   38  F  3  Y   -0.126945   0.198117  -0.091341  -0.034764  -0.150428
   39  F  3  Z   -0.234250  -0.070020   0.120415   0.039710   0.029192
   40  F  3 XX    0.000915   0.003913  -0.000643   0.002236  -0.005018
   41  F  3 YY    0.002346  -0.002954   0.000449  -0.002194   0.002206
   42  F  3 ZZ   -0.003260  -0.000958   0.000194  -0.000042   0.002811
   43  F  3 XY    0.001488  -0.001235  -0.000863  -0.000602  -0.005887
   44  F  3 XZ    0.004124  -0.000246   0.003440   0.004433  -0.000303
   45  F  3 YZ   -0.000625   0.002097  -0.002077   0.001414   0.003468
   46  H  4  S    0.205191   0.143842   0.017914   0.101510  -0.103943
   47  H  4  S    0.097921   0.076721  -0.022204   1.175660  -0.345586
   48  H  4  X   -0.001433   0.001635  -0.013175   0.006006  -0.011702
   49  H  4  Y    0.003347  -0.003073  -0.008299  -0.000057   0.004213
   50  H  4  Z   -0.002982  -0.004637   0.000807   0.018463  -0.000480
   51  H  5  S   -0.191276   0.068947  -0.145821  -0.009844   0.115410
   52  H  5  S   -0.090185   0.071983  -0.614863   0.147856   1.255135
   53  H  5  X    0.000689   0.002301  -0.011637  -0.001914  -0.008045
   54  H  5  Y   -0.005369  -0.001673   0.005275   0.001996  -0.016870
   55  H  5  Z   -0.000194   0.003135   0.013449  -0.009096  -0.002036
   56  F  6  S   -0.003194  -0.000008   0.049914   0.015074  -0.016440
   57  F  6  S    0.009443  -0.003444  -0.097191  -0.032000   0.028079
   58  F  6  S    0.011107   0.019372  -0.382587  -0.103569   0.151196
   59  F  6  X   -0.030284   0.271806  -0.181542  -0.041972   0.103432
   60  F  6  Y   -0.188893  -0.283987  -0.095375   0.022787   0.142926
   61  F  6  Z    0.336610  -0.108933  -0.127499   0.032889   0.046814
   62  F  6  X   -0.029493   0.194138  -0.182603  -0.047892   0.103629
   63  F  6  Y   -0.128467  -0.197960  -0.090591   0.035055   0.149505
   64  F  6  Z    0.234365  -0.071160  -0.120518   0.040301   0.029146
   65  F  6 XX   -0.000918   0.003918   0.000650   0.002230  -0.005037
   66  F  6 YY   -0.002348  -0.002941  -0.000446  -0.002182   0.002273
   67  F  6 ZZ    0.003267  -0.000977  -0.000204  -0.000048   0.002764
   68  F  6 XY   -0.001518  -0.001242   0.000846  -0.000593  -0.005858
   69  F  6 XZ    0.004130   0.000234   0.003423  -0.004450   0.000292
   70  F  6 YZ   -0.000651  -0.002110  -0.002087  -0.001413  -0.003440
   71  H  7  S   -0.205224   0.144198  -0.017396   0.101548  -0.104809
   72  H  7  S   -0.097915   0.076889   0.026867   1.175131  -0.355404
   73  H  7  X   -0.001450  -0.001627  -0.013194  -0.005954   0.011714
   74  H  7  Y    0.003352   0.003084  -0.008305   0.000022  -0.004274
   75  H  7  Z    0.002988  -0.004633  -0.000760   0.018463  -0.000613
   76  H  8  S    0.191837   0.068716   0.146028  -0.010417   0.114727
   77  H  8  S    0.090468   0.071826   0.616190   0.144823   1.243601
   78  H  8  X    0.000694  -0.002298  -0.011621   0.001961   0.007954
   79  H  8  Y   -0.005378   0.001669   0.005317  -0.001996   0.016730
   80  H  8  Z    0.000199   0.003145  -0.013469  -0.009045  -0.001943

                     21         22         23         24         25
                    0.0644     0.1049     0.1079     0.1712     0.3547
                     A          A          A          A          A   
    1  C  1  S   -0.100047   0.023022  -0.036230   0.079443   0.008093
    2  C  1  S    0.192593  -0.022558   0.114636  -0.111230  -0.134538
    3  C  1  S    1.288578  -0.642547   0.176120  -1.806521  -0.493441
    4  C  1  X   -0.082263  -0.028829  -0.276060  -0.236572  -0.276689
    5  C  1  Y    0.073965   0.151595  -0.221119   0.289263   0.332021
    6  C  1  Z   -0.017361  -0.284404   0.011355   0.138650   0.026393
    7  C  1  X   -0.164663  -0.252982  -0.741495  -1.445390   0.340871
    8  C  1  Y    0.214680   0.505740  -0.586685   1.308542  -1.102513
    9  C  1  Z    0.005009  -0.900619   0.033212   0.502368  -0.072953
   10  C  1 XX   -0.002150   0.006579   0.004912   0.020707  -0.024172
   11  C  1 YY    0.001042  -0.005619  -0.012165   0.007934  -0.023596
   12  C  1 ZZ    0.001108  -0.000960   0.007253  -0.028641   0.047768
   13  C  1 XY   -0.005145  -0.014827  -0.014716  -0.030246   0.049735
   14  C  1 XZ   -0.002457   0.006354  -0.020299   0.008841  -0.007793
   15  C  1 YZ   -0.007110   0.003237  -0.006128   0.013670  -0.019123
   16  C  2  S    0.099316  -0.022471  -0.036469  -0.079491   0.008076
   17  C  2  S   -0.191035   0.020754   0.114805   0.111339  -0.134526
   18  C  2  S   -1.278881   0.640408   0.183993   1.806956  -0.493212
   19  C  2  X   -0.081339  -0.033275   0.275777  -0.236279   0.276821
   20  C  2  Y    0.072678   0.146934   0.223370   0.289916  -0.332091
   21  C  2  Z    0.015052   0.284494   0.016976  -0.137716   0.025345
   22  C  2  X   -0.164056  -0.264998   0.738331  -1.444444  -0.340522
   23  C  2  Y    0.210594   0.492652   0.594096   1.311035   1.102864
   24  C  2  Z   -0.010381   0.900942   0.050390  -0.497884  -0.070012
   25  C  2 XX    0.002115  -0.006660   0.004833  -0.020707  -0.024162
   26  C  2 YY   -0.001082   0.005797  -0.012113  -0.008035  -0.023695
   27  C  2 ZZ   -0.001033   0.000863   0.007280   0.028742   0.047857
   28  C  2 XY    0.004950   0.015034  -0.014571   0.030200   0.049725
   29  C  2 XZ   -0.002178   0.006102   0.020342   0.008981   0.007964
   30  C  2 YZ   -0.007311   0.003134   0.006090   0.013502   0.018838
   31  F  3  S   -0.026865  -0.020407   0.057112   0.008534   0.007336
   32  F  3  S    0.050985   0.041401  -0.103858  -0.007752  -0.013804
   33  F  3  S    0.213568   0.159145  -0.508154  -0.108426  -0.082223
   34  F  3  X   -0.127336  -0.011257   0.135526   0.111712   0.057444
   35  F  3  Y   -0.030427  -0.035154   0.102390  -0.063524  -0.087844
   36  F  3  Z    0.051824  -0.031070  -0.093948  -0.015466   0.019030
   37  F  3  X   -0.152129  -0.029782   0.172793   0.202609   0.095954
   38  F  3  Y   -0.056380  -0.076268   0.107029  -0.111384  -0.133606
   39  F  3  Z    0.064465  -0.055784  -0.144750   0.011540  -0.012118
   40  F  3 XX    0.001161   0.000855  -0.001552   0.007560  -0.004256
   41  F  3 YY   -0.002756  -0.005324  -0.001758  -0.009666  -0.001321
   42  F  3 ZZ    0.001595   0.004469   0.003310   0.002106   0.005577
   43  F  3 XY   -0.002246  -0.000579   0.001639   0.004368   0.004471
   44  F  3 XZ    0.001752  -0.006153  -0.002176  -0.001928   0.004280
   45  F  3 YZ    0.002636   0.001527  -0.003057   0.005948   0.000586
   46  H  4  S    0.069681  -0.011103   0.054206   0.070012   0.222952
   47  H  4  S    0.912446  -1.278703  -0.484475   0.984097   0.036297
   48  H  4  X    0.001414  -0.010262   0.016034  -0.002102  -0.011633
   49  H  4  Y   -0.006952   0.010232   0.009245   0.013810   0.026890
   50  H  4  Z    0.010475  -0.007866  -0.008017   0.017206   0.001935
   51  H  5  S    0.031745   0.041394  -0.056518   0.081842   0.285539
   52  H  5  S    0.862606   1.143742   0.746859  -0.051030   0.161601
   53  H  5  X   -0.006153  -0.010798   0.005290  -0.015796  -0.015044
   54  H  5  Y   -0.011178  -0.011454  -0.001057   0.010933   0.020470
   55  H  5  Z   -0.003094  -0.004761  -0.016759  -0.011743  -0.011898
   56  F  6  S    0.026998   0.019480   0.057467  -0.008457   0.007297
   57  F  6  S   -0.051185  -0.039699  -0.104576   0.007634  -0.013774
   58  F  6  S   -0.214922  -0.151006  -0.510920   0.107573  -0.081605
   59  F  6  X   -0.128477  -0.009113  -0.135951   0.111540  -0.057494
   60  F  6  Y   -0.031778  -0.033666  -0.102408  -0.063790   0.087814
   61  F  6  Z   -0.052457   0.032352  -0.093823   0.015154   0.019351
   62  F  6  X   -0.153265  -0.027062  -0.173633   0.202323  -0.095722
   63  F  6  Y   -0.057769  -0.074800  -0.107528  -0.111627   0.133812
   64  F  6  Z   -0.064951   0.057757  -0.144207  -0.012131  -0.011593
   65  F  6 XX   -0.001095  -0.000821  -0.001560  -0.007563  -0.004239
   66  F  6 YY    0.002712   0.005336  -0.001694   0.009628  -0.001324
   67  F  6 ZZ   -0.001617  -0.004515   0.003254  -0.002064   0.005563
   68  F  6 XY    0.002312   0.000582   0.001641  -0.004346   0.004497
   69  F  6 XZ    0.001760  -0.006185   0.002083  -0.001940  -0.004257
   70  F  6 YZ    0.002694   0.001526   0.003053   0.006003  -0.000612
   71  H  7  S   -0.068481   0.010385   0.054463  -0.069765   0.223008
   72  H  7  S   -0.908337   1.287037  -0.463367  -0.984643   0.036009
   73  H  7  X    0.001294  -0.010018  -0.016194  -0.002122   0.011638
   74  H  7  Y   -0.006853   0.010361  -0.009062   0.013869  -0.026891
   75  H  7  Z   -0.010493   0.008031  -0.007913  -0.017164   0.001858
   76  H  8  S   -0.032984  -0.040469  -0.056946  -0.081980   0.285566
   77  H  8  S   -0.878548  -1.157400   0.726466   0.051686   0.161758
   78  H  8  X   -0.006236  -0.010706  -0.005462  -0.015804   0.015049
   79  H  8  Y   -0.011388  -0.011502   0.000895   0.010886  -0.020443
   80  H  8  Z    0.003111   0.005010  -0.016674   0.011761  -0.011968

                     26         27         28         29         30
                    0.3897     0.3905     0.4279     0.4628     0.5291
                     A          A          A          A          A   
    1  C  1  S   -0.034095   0.024989  -0.004000  -0.072133   0.011978
    2  C  1  S    0.204753  -0.222527  -0.068266   0.513389  -0.056756
    3  C  1  S   -0.144526   0.183064   0.280704  -1.596933  -0.030478
    4  C  1  X   -0.405435   0.511673   0.255841   0.412697  -0.222723
    5  C  1  Y   -0.204531   0.215270   0.266650  -0.453667  -0.214103
    6  C  1  Z   -0.215779   0.305303   0.163236   0.053477   0.436984
    7  C  1  X    0.305729  -0.488314  -1.019701  -1.231029   0.218230
    8  C  1  Y    0.137750  -0.442127  -0.843737   1.443121   0.384540
    9  C  1  Z    0.538083  -0.493071   0.096991  -0.009740  -0.438919
   10  C  1 XX   -0.000487   0.025686   0.025663  -0.026970  -0.020016
   11  C  1 YY    0.027728  -0.024683   0.021146   0.009012   0.087357
   12  C  1 ZZ   -0.027240  -0.001003  -0.046809   0.017958  -0.067341
   13  C  1 XY    0.003871   0.045189   0.021169   0.050900   0.024659
   14  C  1 XZ    0.006395   0.011327   0.058573   0.017784  -0.010080
   15  C  1 YZ   -0.057998  -0.004956  -0.049251   0.023448  -0.054241
   16  C  2  S   -0.034690  -0.024187  -0.004066   0.072080  -0.017253
   17  C  2  S    0.209909   0.217772  -0.067727  -0.513458   0.090846
   18  C  2  S   -0.147602  -0.179827   0.279414   1.597628  -0.016100
   19  C  2  X    0.417626   0.501882  -0.256048   0.412578  -0.224740
   20  C  2  Y    0.210160   0.211274  -0.266753  -0.454125  -0.265277
   21  C  2  Z   -0.222309  -0.299495   0.162291  -0.054978  -0.485218
   22  C  2  X   -0.317960  -0.481356   1.020198  -1.229928   0.228203
   23  C  2  Y   -0.149313  -0.440715   0.842667   1.444034   0.432727
   24  C  2  Z    0.549313   0.478837   0.100629   0.014464   0.520158
   25  C  2 XX   -0.001054  -0.025663   0.025640   0.027011   0.022452
   26  C  2 YY    0.027952   0.024020   0.020898  -0.009140  -0.089807
   27  C  2 ZZ   -0.026898   0.001643  -0.046538  -0.017871   0.067354
   28  C  2 XY    0.002810  -0.045343   0.021444  -0.050923  -0.028341
   29  C  2 XZ   -0.006097   0.011325  -0.058473   0.017542  -0.012744
   30  C  2 YZ    0.058117  -0.006240   0.049525   0.023405  -0.064217
   31  F  3  S    0.009276  -0.006071   0.018979  -0.016239   0.005970
   32  F  3  S   -0.074236  -0.047365   0.007283   0.078344  -0.012510
   33  F  3  S    0.222868   0.389533  -0.483254  -0.047218  -0.065387
   34  F  3  X    0.125372   0.191163  -0.199456  -0.046029   0.026816
   35  F  3  Y    0.061638   0.141861  -0.002719  -0.036466   0.067771
   36  F  3  Z   -0.189522  -0.072312  -0.046117  -0.011143   0.082730
   37  F  3  X    0.005846  -0.078495   0.051885   0.083795   0.019639
   38  F  3  Y   -0.004567   0.008086   0.042478  -0.114418  -0.030173
   39  F  3  Z   -0.047641   0.003712  -0.117731   0.009390  -0.067884
   40  F  3 XX    0.007880   0.021220  -0.022299  -0.018478   0.008230
   41  F  3 YY   -0.003841  -0.008538   0.008957   0.010463   0.006241
   42  F  3 ZZ   -0.004038  -0.012682   0.013342   0.008016  -0.014471
   43  F  3 XY    0.018585   0.028322  -0.012993   0.010644   0.009325
   44  F  3 XZ   -0.027684  -0.021865   0.016033   0.005034   0.016713
   45  F  3 YZ   -0.008153  -0.019288   0.007896  -0.002857   0.009047
   46  H  4  S   -0.474461  -0.030759  -0.520220   0.239919   0.430153
   47  H  4  S    0.071026  -0.084682   0.206300   0.248914  -0.890966
   48  H  4  X    0.003019   0.015549  -0.005665   0.031199   0.006820
   49  H  4  Y    0.028013  -0.019237   0.023726  -0.002841  -0.026294
   50  H  4  Z   -0.004283  -0.000582  -0.021685   0.012794   0.041521
   51  H  5  S    0.255227  -0.178983   0.254877   0.303911  -0.574093
   52  H  5  S   -0.035807  -0.057197   0.043224   0.333982   1.171111
   53  H  5  X    0.019034   0.005399   0.000543   0.015852   0.020665
   54  H  5  Y   -0.020536   0.002234   0.005837  -0.009185   0.076283
   55  H  5  Z    0.000630  -0.003929   0.016918  -0.012419   0.005137
   56  F  6  S    0.009413   0.005822   0.018986   0.016294  -0.004317
   57  F  6  S   -0.073093   0.049152   0.007315  -0.078414   0.005072
   58  F  6  S    0.213634  -0.394351  -0.483550   0.046304   0.067464
   59  F  6  X   -0.120866   0.194057   0.199495  -0.045842   0.024615
   60  F  6  Y   -0.057611   0.142924   0.002847  -0.036406   0.067302
   61  F  6  Z   -0.187826   0.077343  -0.045958   0.011067  -0.080545
   62  F  6  X   -0.007586  -0.078223  -0.052075   0.083563   0.018146
   63  F  6  Y    0.004853   0.008097  -0.041952  -0.114584  -0.027504
   64  F  6  Z   -0.047661  -0.002485  -0.117885  -0.009955   0.060438
   65  F  6 XX    0.007401  -0.021411  -0.022332   0.018448  -0.008485
   66  F  6 YY   -0.003698   0.008769   0.009042  -0.010424  -0.004606
   67  F  6 ZZ   -0.003703   0.012642   0.013290  -0.008025   0.013091
   68  F  6 XY    0.017801  -0.028650  -0.012912  -0.010702  -0.007909
   69  F  6 XZ    0.027220  -0.022621  -0.016100   0.004955   0.015921
   70  F  6 YZ    0.007671  -0.019478  -0.007918  -0.002878   0.009087
   71  H  7  S   -0.473369   0.042162  -0.519646  -0.240438  -0.449388
   72  H  7  S    0.072641   0.082787   0.206041  -0.248711   0.835515
   73  H  7  X   -0.002625   0.015635   0.005661   0.031197   0.009101
   74  H  7  Y   -0.028445  -0.018551  -0.023632  -0.002765  -0.022341
   75  H  7  Z   -0.004374   0.000648  -0.021743  -0.012847  -0.041565
   76  H  8  S    0.259138   0.172735   0.254738  -0.304619   0.491616
   77  H  8  S   -0.034184   0.057949   0.043386  -0.333528  -1.031313
   78  H  8  X   -0.018935   0.005872  -0.000577   0.015852   0.017956
   79  H  8  Y    0.020562   0.001751  -0.005854  -0.009279   0.068748
   80  H  8  Z    0.000790   0.003926   0.016881   0.012424   0.002032

                     31         32         33         34         35
                    0.5300     0.5501     0.5551     0.5793     0.7858
                     A          A          A          A          A   
    1  C  1  S   -0.041924  -0.043886   0.052114   0.049695   0.021792
    2  C  1  S    0.271513   0.350834  -0.309261  -0.455195  -1.285780
    3  C  1  S   -0.364294  -0.572232  -0.398020   0.639945   2.654657
    4  C  1  X    0.033646  -0.247051   0.214004  -0.058880  -0.189199
    5  C  1  Y    0.430070   0.100269  -0.252842  -0.334938  -0.028070
    6  C  1  Z   -0.410984   0.497695  -0.382252   0.123021  -0.020210
    7  C  1  X   -0.101917   0.720981  -1.099880   0.108061   0.113241
    8  C  1  Y   -0.423401   0.419577   0.824102   0.674132   0.708552
    9  C  1  Z    0.675013  -0.919456   1.830679  -1.547138  -0.017199
   10  C  1 XX    0.020598   0.024057  -0.062085  -0.033030  -0.030853
   11  C  1 YY   -0.028111   0.019824   0.041354  -0.024322   0.010889
   12  C  1 ZZ    0.007513  -0.043880   0.020730   0.057352   0.019963
   13  C  1 XY   -0.031078  -0.006642   0.015091  -0.006102   0.061529
   14  C  1 XZ    0.019487   0.042791  -0.033883  -0.003635   0.020003
   15  C  1 YZ    0.078739  -0.012659  -0.014756   0.005875   0.022355
   16  C  2  S   -0.040192  -0.044332  -0.051481  -0.049877   0.021763
   17  C  2  S    0.262885   0.353315   0.304287   0.457162  -1.284927
   18  C  2  S   -0.365096  -0.567655   0.405948  -0.643463   2.651697
   19  C  2  X   -0.005157   0.249737   0.211081  -0.058396   0.189039
   20  C  2  Y   -0.398333  -0.103296  -0.251791  -0.335445   0.028291
   21  C  2  Z   -0.352440   0.502837   0.376947  -0.123324  -0.020054
   22  C  2  X    0.071581  -0.733364  -1.091706   0.105969  -0.112957
   23  C  2  Y    0.369417  -0.410486   0.833826   0.668271  -0.709266
   24  C  2  Z    0.607874  -0.945839  -1.818691   1.547222  -0.018106
   25  C  2 XX    0.018023   0.024631   0.061728   0.033162  -0.030759
   26  C  2 YY   -0.016628   0.019345  -0.041426   0.024257   0.010942
   27  C  2 ZZ   -0.001395  -0.043976  -0.020302  -0.057420   0.019817
   28  C  2 XY   -0.027684  -0.006611  -0.014842   0.005991   0.061629
   29  C  2 XZ   -0.018259  -0.043142  -0.033487  -0.003646  -0.019708
   30  C  2 YZ   -0.071357   0.012854  -0.014641   0.006018  -0.022293
   31  F  3  S    0.012649   0.005241   0.014727  -0.004145   0.032629
   32  F  3  S   -0.057779  -0.043457  -0.029757  -0.009860  -0.142823
   33  F  3  S    0.019938   0.135745  -0.182271   0.171048  -0.158393
   34  F  3  X    0.015486   0.080477  -0.007743   0.002572   0.036759
   35  F  3  Y    0.001541   0.028700   0.100385  -0.050789  -0.038363
   36  F  3  Z    0.010075   0.060116   0.081204  -0.195879   0.031078
   37  F  3  X    0.009838   0.031303   0.148652  -0.066956   0.134132
   38  F  3  Y   -0.020393  -0.014333  -0.003234  -0.083818   0.155349
   39  F  3  Z   -0.054177   0.080068   0.079975  -0.038859  -0.098805
   40  F  3 XX   -0.002371  -0.003088  -0.014849   0.000869  -0.001481
   41  F  3 YY    0.012858   0.000544   0.007401  -0.003699   0.003904
   42  F  3 ZZ   -0.010487   0.002544   0.007448   0.002830  -0.002424
   43  F  3 XY    0.011103   0.000381   0.013095  -0.001480  -0.032186
   44  F  3 XZ    0.004991  -0.002883   0.000897  -0.008311   0.017593
   45  F  3 YZ   -0.001493  -0.009668  -0.000147  -0.006919   0.016755
   46  H  4  S   -0.171098  -0.388434  -0.116178  -0.651899  -0.330463
   47  H  4  S   -0.395501   1.182207   1.639917  -0.091786  -0.522235
   48  H  4  X   -0.017868  -0.028685  -0.030590   0.015412  -0.024323
   49  H  4  Y   -0.028791  -0.005070   0.012867   0.005034  -0.025738
   50  H  4  Z   -0.001342  -0.079971  -0.060362  -0.037994   0.024175
   51  H  5  S   -0.614479  -0.349835  -0.508304   0.007838  -0.372210
   52  H  5  S    1.039304  -0.482980   0.107411   1.098446  -0.920187
   53  H  5  X    0.019921   0.006247   0.020174  -0.000879  -0.023942
   54  H  5  Y    0.055241  -0.005462   0.022365   0.026439  -0.026221
   55  H  5  Z    0.054907   0.010385   0.000519   0.068359  -0.000134
   56  F  6  S    0.013272   0.005094  -0.014855   0.004153   0.032674
   57  F  6  S   -0.058871  -0.043200   0.030535   0.009737  -0.142942
   58  F  6  S    0.012144   0.137836   0.180721  -0.170515  -0.159034
   59  F  6  X   -0.018819  -0.080591  -0.006655   0.002248  -0.036830
   60  F  6  Y   -0.009746  -0.027688   0.100889  -0.051433   0.038521
   61  F  6  Z    0.019885   0.058748  -0.081511   0.195885   0.031663
   62  F  6  X   -0.011913  -0.029635   0.149168  -0.066966  -0.134369
   63  F  6  Y    0.024387   0.014220  -0.003169  -0.083789  -0.155355
   64  F  6  Z   -0.062649   0.078873  -0.080741   0.038824  -0.099761
   65  F  6 XX   -0.001265  -0.002907   0.014864  -0.000868  -0.001495
   66  F  6 YY    0.013507   0.000402  -0.007417   0.003752   0.004029
   67  F  6 ZZ   -0.012242   0.002505  -0.007447  -0.002884  -0.002534
   68  F  6 XY    0.012197   0.000237  -0.013141   0.001527  -0.032129
   69  F  6 XZ   -0.006998   0.002883   0.000829  -0.008316  -0.017744
   70  F  6 YZ    0.000461   0.009660  -0.000278  -0.006842  -0.016737
   71  H  7  S   -0.115901  -0.388001   0.120659   0.651252  -0.330098
   72  H  7  S   -0.509396   1.162261  -1.652161   0.094749  -0.522144
   73  H  7  X    0.016692   0.028288  -0.030927   0.015471   0.024349
   74  H  7  Y    0.031909   0.005532   0.012467   0.005028   0.025730
   75  H  7  Z    0.004180  -0.079292   0.061319   0.037771   0.024306
   76  H  8  S   -0.680251  -0.344896   0.514251  -0.009882  -0.372527
   77  H  8  S    1.180460  -0.479361  -0.105137  -1.097934  -0.920469
   78  H  8  X   -0.022326  -0.006070   0.020277  -0.000917   0.023838
   79  H  8  Y   -0.064597   0.005490   0.022501   0.026542   0.026259
   80  H  8  Z    0.055005   0.010546  -0.000743  -0.068154  -0.000096

                     36         37         38         39         40
                    0.9135     0.9522     0.9648     1.0138     1.1281
                     A          A          A          A          A   
    1  C  1  S   -0.011807   0.000476   0.017076  -0.006724   0.030753
    2  C  1  S   -0.384185   0.004103   0.449770   0.289588   1.289091
    3  C  1  S    2.361345  -0.018397  -2.677877   0.189136  -4.937856
    4  C  1  X   -0.106212   0.049209   0.154553  -0.178309  -0.146229
    5  C  1  Y   -0.146816   0.052737   0.036674  -0.159860  -0.012255
    6  C  1  Z   -0.118782   0.066020   0.119927  -0.089846  -0.033945
    7  C  1  X    0.546686  -0.003813  -0.537999  -0.038747  -1.253922
    8  C  1  Y   -0.400281   0.174325   0.494473   0.117291   0.977053
    9  C  1  Z    0.012657  -0.201762  -0.365722  -0.107282  -0.453524
   10  C  1 XX    0.174732   0.056450   0.006161   0.029829   0.015133
   11  C  1 YY   -0.146614   0.051367  -0.066932   0.025053  -0.039582
   12  C  1 ZZ   -0.028119  -0.107818   0.060772  -0.054882   0.024449
   13  C  1 XY    0.075042   0.026802  -0.030987   0.085416   0.062552
   14  C  1 XZ   -0.020587  -0.162329  -0.108065   0.087263   0.001783
   15  C  1 YZ   -0.018638   0.097631  -0.101971   0.077296   0.036666
   16  C  2  S    0.011813   0.000490  -0.017068  -0.006719  -0.030755
   17  C  2  S    0.383945   0.005021  -0.450980   0.290660  -1.289215
   18  C  2  S   -2.360409  -0.021117   2.679974   0.186384   4.938387
   19  C  2  X   -0.106168  -0.049181   0.154474   0.178554  -0.145988
   20  C  2  Y   -0.147372  -0.052437   0.036794   0.160319  -0.012332
   21  C  2  Z    0.118418   0.065875  -0.119529  -0.089420   0.033862
   22  C  2  X    0.547201   0.004114  -0.538411   0.039360  -1.254743
   23  C  2  Y   -0.400722  -0.174303   0.492089  -0.117161   0.974796
   24  C  2  Z   -0.014850  -0.203570   0.366987  -0.107527   0.456999
   25  C  2 XX   -0.174503   0.057152  -0.006023   0.029912  -0.015041
   26  C  2 YY    0.146895   0.051066   0.067725   0.025494   0.039295
   27  C  2 ZZ    0.027609  -0.108217  -0.061702  -0.055406  -0.024254
   28  C  2 XY   -0.074809   0.026389   0.031414   0.085871  -0.062518
   29  C  2 XZ   -0.020312   0.162743  -0.107493  -0.087029   0.001484
   30  C  2 YZ   -0.018453  -0.096668  -0.101801  -0.077120   0.036850
   31  F  3  S   -0.035448  -0.003283   0.049428   0.043578   0.012644
   32  F  3  S    0.128864  -0.000596  -0.234304  -0.222277  -0.062422
   33  F  3  S    0.209907   0.029681  -0.142733   0.029537  -0.251928
   34  F  3  X    0.465742   0.080198  -0.048559  -0.331200   0.221130
   35  F  3  Y   -0.137366  -0.370741  -0.382191  -0.332751   0.264339
   36  F  3  Z    0.149032  -0.392314   0.258533   0.226995  -0.009266
   37  F  3  X   -0.754648  -0.142275   0.315533   0.607879  -0.181038
   38  F  3  Y    0.042869   0.417077   0.556245   0.528196  -0.369925
   39  F  3  Z   -0.031092   0.480621  -0.465223  -0.381624  -0.068947
   40  F  3 XX    0.019376  -0.004782   0.001968   0.027272  -0.049727
   41  F  3 YY    0.001025  -0.007622  -0.004266  -0.014449   0.004736
   42  F  3 ZZ   -0.020401   0.012404   0.002298  -0.012823   0.044991
   43  F  3 XY   -0.016871  -0.019761   0.009647   0.023078  -0.025163
   44  F  3 XZ    0.002632  -0.000749  -0.000878  -0.028215   0.045803
   45  F  3 YZ    0.008915  -0.008810   0.003550  -0.013611   0.030543
   46  H  4  S    0.158463  -0.003315  -0.309421   0.051035  -0.587975
   47  H  4  S    0.202225   0.137962  -0.326605   0.055710  -0.329917
   48  H  4  X   -0.049865   0.095108  -0.057024  -0.038299  -0.008256
   49  H  4  Y   -0.041074  -0.047054  -0.067709  -0.049688   0.017706
   50  H  4  Z   -0.010072  -0.052771   0.016730   0.001640   0.030219
   51  H  5  S    0.187089  -0.059342  -0.278787   0.078360  -0.419248
   52  H  5  S    0.170488  -0.122442   0.166490  -0.220678  -0.131683
   53  H  5  X    0.089105  -0.094935   0.013555  -0.021711   0.023534
   54  H  5  Y   -0.030676  -0.011342  -0.064818  -0.029019  -0.028115
   55  H  5  Z    0.024694   0.059278   0.065551   0.045524   0.012618
   56  F  6  S    0.035492  -0.003278  -0.049417   0.043537  -0.012623
   57  F  6  S   -0.129123  -0.000655   0.234133  -0.222034   0.062268
   58  F  6  S   -0.209950   0.029563   0.142870   0.029265   0.252125
   59  F  6  X    0.465475  -0.081745  -0.049075   0.330857   0.221628
   60  F  6  Y   -0.135473   0.374033  -0.380239   0.331802   0.264638
   61  F  6  Z   -0.150758  -0.390209  -0.261142   0.227876   0.010082
   62  F  6  X   -0.754437   0.144080   0.316298  -0.607345  -0.181782
   63  F  6  Y    0.041269  -0.420891   0.553249  -0.526462  -0.370768
   64  F  6  Z    0.032566   0.478166   0.468711  -0.383001   0.067767
   65  F  6 XX   -0.019371  -0.004757  -0.002007   0.027248   0.049769
   66  F  6 YY   -0.001138  -0.007675   0.004246  -0.014532  -0.004952
   67  F  6 ZZ    0.020509   0.012432  -0.002239  -0.012716  -0.044817
   68  F  6 XY    0.016774  -0.019828  -0.009724   0.022923   0.025025
   69  F  6 XZ    0.002720   0.000659  -0.000953   0.028244   0.045903
   70  F  6 YZ    0.008847   0.008668   0.003589   0.013559   0.030717
   71  H  7  S   -0.158582  -0.003947   0.308891   0.050818   0.587884
   72  H  7  S   -0.201978   0.137224   0.326629   0.055569   0.329953
   73  H  7  X   -0.050210  -0.094817  -0.057305   0.038313  -0.008192
   74  H  7  Y   -0.040992   0.047552  -0.067432   0.049645   0.017942
   75  H  7  Z    0.009726  -0.052609  -0.017179   0.001855  -0.030181
   76  H  8  S   -0.187237  -0.059822   0.277975   0.078180   0.419057
   77  H  8  S   -0.171247  -0.121092  -0.167478  -0.221115   0.131344
   78  H  8  X    0.089438   0.094706   0.013809   0.021730   0.023726
   79  H  8  Y   -0.030531   0.011613  -0.064534   0.028906  -0.027964
   80  H  8  Z   -0.024561   0.059668  -0.065525   0.045594  -0.012549

                     41         42         43         44         45
                    1.1710     1.1799     1.3040     1.3119     1.5058
                     A          A          A          A          A   
    1  C  1  S   -0.007310  -0.003481  -0.002290   0.000036   0.002744
    2  C  1  S   -0.348810  -0.029443  -0.022157  -0.010723   0.097748
    3  C  1  S    1.004587  -0.142568  -0.245191   0.130764  -0.454440
    4  C  1  X    0.035812  -0.104764  -0.015196   0.007877  -0.043637
    5  C  1  Y   -0.008193  -0.024642  -0.027841  -0.001966  -0.024417
    6  C  1  Z    0.050562   0.008131   0.005276   0.009366  -0.042039
    7  C  1  X    0.397492   0.610547  -0.355961   0.099436  -0.410916
    8  C  1  Y    0.181269   0.106525   0.346922   0.285307   0.332555
    9  C  1  Z   -1.087132  -0.324603   0.267307  -0.293444   0.682819
   10  C  1 XX   -0.005527  -0.020447   0.353506  -0.120239   0.021337
   11  C  1 YY   -0.064630  -0.029672  -0.321994  -0.127870  -0.229647
   12  C  1 ZZ    0.070158   0.050119  -0.031511   0.248109   0.208310
   13  C  1 XY   -0.064304   0.061055   0.086316  -0.170872  -0.077666
   14  C  1 XZ    0.019676  -0.026767  -0.183206   0.303736   0.252576
   15  C  1 YZ    0.040921   0.094839  -0.152043  -0.147079  -0.227882
   16  C  2  S    0.007315  -0.003436   0.002289   0.000040  -0.002735
   17  C  2  S    0.348732  -0.027479   0.022009  -0.010227  -0.097767
   18  C  2  S   -1.004281  -0.149587   0.245806   0.127664   0.454004
   19  C  2  X    0.035408   0.104933  -0.015271  -0.007691  -0.043705
   20  C  2  Y   -0.008183   0.024602  -0.027825   0.002134  -0.024579
   21  C  2  Z   -0.050690   0.008073  -0.005291   0.009327   0.042024
   22  C  2  X    0.399793  -0.607946  -0.356508  -0.096911  -0.410526
   23  C  2  Y    0.178543  -0.105815   0.346463  -0.286214   0.335658
   24  C  2  Z    1.089381  -0.320871  -0.267681  -0.291436  -0.681372
   25  C  2 XX    0.005627  -0.020374  -0.354257  -0.118515  -0.021610
   26  C  2 YY    0.064610  -0.028897   0.322416  -0.130041   0.231297
   27  C  2 ZZ   -0.070238   0.049270   0.031841   0.248555  -0.209687
   28  C  2 XY    0.064133   0.061189  -0.086571  -0.169136   0.076642
   29  C  2 XZ    0.020087   0.027063  -0.185119  -0.303210   0.252964
   30  C  2 YZ    0.041600  -0.095038  -0.150102   0.146636  -0.226627
   31  F  3  S   -0.001328   0.005586   0.000138  -0.002788   0.010445
   32  F  3  S   -0.004297  -0.050275  -0.019600   0.023633  -0.101459
   33  F  3  S    0.128866   0.130427   0.029158  -0.013376   0.035130
   34  F  3  X   -0.091086  -0.411598  -0.220402  -0.026028   0.032486
   35  F  3  Y    0.296995   0.283336   0.160725  -0.203243   0.030751
   36  F  3  Z    0.475260  -0.312458  -0.119331  -0.216424  -0.040567
   37  F  3  X    0.084020   0.663382   0.357737   0.056850  -0.005429
   38  F  3  Y   -0.485325  -0.420274  -0.299564   0.356495  -0.124867
   39  F  3  Z   -0.771179   0.485095   0.254065   0.411857   0.112436
   40  F  3 XX    0.010817   0.056183   0.096084   0.014042   0.034007
   41  F  3 YY   -0.031446  -0.027765  -0.029033   0.062740  -0.077224
   42  F  3 ZZ    0.020629  -0.028417  -0.067051  -0.076782   0.043216
   43  F  3 XY   -0.027775  -0.005722  -0.018005   0.067735  -0.079771
   44  F  3 XZ   -0.052123   0.004111   0.015733   0.069675  -0.018402
   45  F  3 YZ   -0.020440   0.011770   0.064438   0.020984   0.032803
   46  H  4  S   -0.103272   0.081331   0.092802   0.065278   0.165660
   47  H  4  S   -0.317798   0.180733   0.219620   0.113464   0.344489
   48  H  4  X    0.016214  -0.037273  -0.176294  -0.128357   0.240254
[...]
                D/DZ     0.029605096    0.379879380    0.034689843

          --------------------------------------------------------
          NORMAL COORDINATE ANALYSIS IN THE HARMONIC APPROXIMATION
          --------------------------------------------------------

          ATOMIC WEIGHTS (AMU)

    1     C                12.00000
    2     C                12.00000
    3     F                18.99840
    4     H                 1.00782
    5     H                 1.00782
    6     F                18.99840
    7     H                 1.00782
    8     H                 1.00782

 * * * WARNING, MODE 1 HAS BEEN CHOSEN AS A VIBRATION
          WHILE MODE 7 IS ASSUMED TO BE A TRANSLATION/ROTATION.
 PLEASE VERIFY THE PROGRAM'S DECISION MANUALLY!


 MODE(S)     1 TO     1 TREATED AS IMAGINARY.

 MODES    2 TO    7 ARE TAKEN AS ROTATIONS AND TRANSLATIONS.

 ANALYZING SYMMETRY OF NORMAL MODES...

     FREQUENCIES IN CM**-1, IR INTENSITIES IN DEBYE**2/AMU-ANGSTROM**2,
     REDUCED MASSES IN AMU.

                            1           2           3           4           5
       FREQUENCY:       154.07 I      7.09        0.27        0.02        0.02  
        SYMMETRY:         A           A           A           A           A   
    REDUCED MASS:      2.90331     5.06436     7.87584     8.25325     8.24623
    IR INTENSITY:      0.22971     0.03377     0.00023     0.00000     0.00000

  1   C            X  0.01928214  0.02846898  0.00195238  0.00510529  0.12303130
                   Y  0.02666081 -0.03096649  0.12611873 -0.00030367 -0.00092018
                   Z -0.10222749  0.09089149 -0.00220400  0.12296217 -0.00498428
  2   C            X -0.01921325  0.02515756  0.00189381  0.00514469  0.12301080
                   Y -0.02627552 -0.03482161  0.12603633 -0.00026270 -0.00094491
                   Z -0.10190479 -0.09171184  0.00270517  0.12295783 -0.00527070
  3   F            X  0.05198975 -0.02142310  0.00013313  0.00511700  0.12290536
                   Y  0.03364714  0.01801181  0.12022254 -0.00022321 -0.00094083
                   Z  0.08532545 -0.12212230 -0.00620307  0.12295087 -0.00544829
  4   H            X -0.12510441  0.10506305  0.00487580  0.00516015  0.12319540
                   Y -0.19726667 -0.13008413  0.13513837 -0.00025119 -0.00101300
                   Z -0.11957671 -0.14407952  0.00443450  0.12295937 -0.00534667
  5   H            X  0.00231395 -0.02446734 -0.00008436  0.00517035  0.12287107
                   Y  0.07697612  0.01979466  0.12082624 -0.00027241 -0.00091031
                   Z -0.27230480 -0.15375874  0.01173998  0.12296007 -0.00526783
  6   F            X -0.05207485 -0.02275792  0.00011266  0.00513002  0.12289881
                   Y -0.03399266  0.02879230  0.12041165 -0.00034523 -0.00087279
                   Z  0.08525131  0.12281526  0.00668465  0.12296255 -0.00480167
  7   H            X  0.12531142  0.11103065  0.00496979  0.00509644  0.12323033
                   Y  0.19879448 -0.12318217  0.13527135 -0.00031632 -0.00097131
                   Z -0.11954780  0.14283098 -0.00390292  0.12296604 -0.00490929
  8   H            X -0.00170220 -0.01523063  0.00009149  0.00507364  0.12292864
                   Y -0.07664544  0.02099408  0.12089945 -0.00029383 -0.00089907
                   Z -0.27362623  0.15204264 -0.01125691  0.12296264 -0.00499102

 TRANS. SAYVETZ    X  0.00003502 -0.01807407  0.06075365  0.33833759  8.11846833
                   Y -0.00006772 -0.11439428  8.11366828 -0.01873862 -0.06066048
                   Z -0.00010050  0.00033313  0.01618593  8.11869849 -0.33846793
               TOTAL  0.00012614  0.11581379  8.11391188  8.12576695  8.12574724

   ROT. SAYVETZ    X -0.01073047  3.57824333 -0.35589996 -0.00001384  0.00199570
                   Y -0.00534773 19.54424075  0.74349023  0.00083237  0.04772981
                   Z  1.51882284 -0.79551820 -0.01414243  0.00896452 -0.00501559
               TOTAL  1.51887016 19.88502002  0.82440434  0.00900309  0.04803409

                            6           7           8           9          10
       FREQUENCY:         5.48       10.23      372.86      403.77      795.91  
        SYMMETRY:         A           A           A           A           A   
    REDUCED MASS:      2.80539     8.88341     3.07731     5.00878     1.58596
    IR INTENSITY:      0.10050     0.00114     0.35924     0.00458     0.17581

  1   C            X -0.01170261 -0.04150621 -0.06252767  0.06569190 -0.03501860
                   Y -0.06337184 -0.05483634  0.09849012  0.05160909  0.01854935
                   Z  0.07148025  0.01050842  0.06232918  0.00476699  0.09198521
  2   C            X -0.01165796  0.04366078 -0.06229626 -0.06606582  0.03485794
                   Y -0.06306904  0.05264174  0.09892149 -0.05108664 -0.01883844
                   Z -0.07195383  0.00381287 -0.06225119  0.00424338  0.09172535
  3   F            X  0.00949194 -0.01748121  0.05682529 -0.13151875  0.04415414
                   Y  0.06239386  0.14716869 -0.06935132  0.02351331  0.01206030
                   Z  0.09056479 -0.01060378 -0.00075302  0.00493163 -0.04387667
  4   H            X -0.04735027  0.07926343 -0.11277040 -0.04808414  0.18810556
                   Y -0.26327297  0.08816351 -0.07199947 -0.19085959 -0.39298377
                   Z -0.11918322  0.00324703 -0.09654826 -0.04125436 -0.06735698
  5   H            X  0.01265547  0.11970503 -0.20741344 -0.14750747 -0.13540647
                   Y  0.05148193  0.02402197  0.20385161  0.04403515  0.22045304
                   Z -0.26173798  0.01290281 -0.15765990 -0.10550515 -0.19931178
  6   F            X  0.00942788  0.01581706  0.05602041  0.13183488 -0.04407045
                   Y  0.06229830 -0.14534585 -0.06924923 -0.02390951 -0.01192549
                   Z -0.09013912 -0.00148195  0.00066529  0.00484861 -0.04391572
  7   H            X -0.04718106 -0.07081615 -0.11267918  0.04750212 -0.18828318
                   Y -0.26350254 -0.09716418 -0.07313651  0.19075145  0.39346352
                   Z  0.11800342  0.01370755  0.09629513 -0.04008675 -0.06590191
  8   H            X  0.01228904 -0.12133194 -0.20823468  0.14655819  0.13592465
                   Y  0.05047707 -0.02236158  0.20361213 -0.04266591 -0.22003382
                   Z  0.26127163  0.02405520  0.15860562 -0.10481220 -0.19992827

 TRANS. SAYVETZ    X  0.00898815  0.00111228 -0.00011370 -0.00002418  0.00000524
                   Y  0.42352014  0.00089819  0.00013102  0.00001316 -0.00000195
                   Z  0.00074492 -0.00341952 -0.00003282 -0.00000740 -0.00005397
               TOTAL  0.42361616  0.00370635  0.00017655  0.00002851  0.00005426

   ROT. SAYVETZ    X  7.78469994  0.12867760  0.11242062 -0.00005778  0.00062354
                   Y -8.95921486  0.72506182 -0.15600249 -0.00083231 -0.00051155
                   Z  0.01019196 21.59467502 -0.00269199 -0.09974609  0.00133924
               TOTAL 11.86883263 21.60722707  0.19230813  0.09974958  0.00156335

                           11          12          13          14          15
       FREQUENCY:       979.67     1015.08     1052.13     1091.03     1205.94  
        SYMMETRY:         A           A           A           A           A   
    REDUCED MASS:      3.98650     3.22803     4.05530     2.23161     1.06682
    IR INTENSITY:      2.90687     0.00017     0.58885     0.92125     0.07212

  1   C            X  0.12694763  0.07724914  0.12629157  0.02531158  0.00753663
                   Y  0.05744576 -0.15815153  0.06858786  0.02442192  0.03073269
                   Z -0.01776916  0.00515339  0.03091497  0.13641544 -0.00125875
  2   C            X  0.12723946 -0.07687422 -0.12622495  0.02489038  0.00673090
                   Y  0.05693431  0.15831299 -0.06883251  0.02462778  0.03071877
                   Z  0.01800835  0.00571311  0.03112980 -0.13633521  0.00280997
  3   F            X -0.07985921  0.00244116  0.06341893 -0.02765411 -0.01635377
                   Y -0.03618824 -0.01281872  0.05238923 -0.02467415 -0.02081200
                   Z  0.03190626  0.00124497 -0.03031776  0.04171150 -0.01538698
  4   H            X  0.09827422 -0.10103628 -0.10674799  0.09929520 -0.32609648
                   Y -0.18425766  0.03678362  0.09371141  0.34999258 -0.01488939
                   Z -0.03551688 -0.03233193  0.06455334 -0.06447601  0.09859876
  5   H            X -0.10569260 -0.22141394 -0.19737257  0.12457346  0.54985597
                   Y  0.18389649  0.24330148 -0.10807134 -0.17676187  0.04209113
                   Z -0.08476902 -0.05483227  0.13849192  0.13503095 -0.24096067
  6   F            X -0.07983312 -0.00268443 -0.06337101 -0.02785175 -0.01647597
                   Y -0.03607035  0.01270956 -0.05215166 -0.02468835 -0.02085653
                   Z -0.03203662  0.00117730 -0.03039970 -0.04184915  0.01443166
  7   H            X  0.09766835  0.10140674  0.10668472  0.09925773 -0.31372936
                   Y -0.18356597 -0.03728343 -0.09534549  0.34889431 -0.01354008
                   Z  0.03474230 -0.03226815  0.06408333  0.06584281 -0.09382563
  8   H            X -0.10652541  0.22116454  0.19574081  0.12543072  0.53894766
                   Y  0.18402900 -0.24266720  0.10814069 -0.17573399  0.04010651
                   Z  0.08515712 -0.05553637  0.13873844 -0.13475621  0.23573026

 TRANS. SAYVETZ    X -0.00005641 -0.00000055  0.00000162 -0.00003209 -0.00001122
                   Y -0.00013404 -0.00000077  0.00000078 -0.00011042 -0.00002887
                   Z  0.00000416  0.00007938  0.00004561  0.00000202  0.00000411
               TOTAL  0.00014549  0.00007939  0.00004564  0.00011501  0.00003124

   ROT. SAYVETZ    X  0.01420466  0.00051407 -0.00020922 -0.00285061  0.00128757
                   Y -0.02415447 -0.00041441 -0.00000665  0.00130663  0.01248163
                   Z -0.00035138  0.04190374  0.01231793  0.00029055  0.00042455
               TOTAL  0.02802382  0.04190894  0.01231971  0.00314924  0.01255505

                           16          17          18          19          20
       FREQUENCY:      1218.47     1313.16     1382.10     1426.78     1439.02  
        SYMMETRY:         A           A           A           A           A   
    REDUCED MASS:      1.11789     1.20607     1.37024     1.07701     1.08562
    IR INTENSITY:      0.07651     0.20171     0.05092     0.00095     0.16131

  1   C            X  0.01855836 -0.06666164 -0.10588584 -0.00383957 -0.00293849
                   Y -0.00562230  0.03617332  0.02179642 -0.04953506 -0.04986600
                   Z  0.05041562 -0.03455775 -0.01054082 -0.01916259 -0.02597717
  2   C            X -0.01881610 -0.06674653  0.10591882  0.00374439 -0.00285902
                   Y  0.00460522  0.03595215 -0.02164416  0.04932213 -0.05031078
                   Z  0.05032178  0.03467204 -0.01065426 -0.01878958  0.02588840
  3   F            X  0.00137827 -0.00062220 -0.00270007  0.00355161 -0.00293862
                   Y -0.00235740 -0.01516727  0.01039807  0.00607354 -0.00490656
                   Z -0.03056679  0.00959681 -0.00507424 -0.00369038  0.00319610
  4   H            X -0.45059586  0.51628845 -0.38611576 -0.13788176  0.16592410
                   Y -0.08089351 -0.12798050  0.04842067 -0.45485282  0.43222015
                   Z  0.16651405 -0.19317352  0.16604125 -0.10839983  0.09855617
  5   H            X  0.39735808  0.29019379 -0.40534793  0.03089812 -0.07619599
                   Y  0.04714812 -0.01469468  0.07951158 -0.24096424  0.25943309
                   Z -0.18429790 -0.05249167  0.05647031  0.40185003 -0.40418108
  6   F            X -0.00095069 -0.00065847  0.00267033 -0.00359923 -0.00293931
                   Y  0.00298679 -0.01516212 -0.01041003 -0.00613390 -0.00487750
                   Z -0.03101272 -0.00964133 -0.00511922 -0.00373198 -0.00317818
  7   H            X  0.46018437  0.51557400  0.38589887  0.13915730  0.16486717
                   Y  0.08156955 -0.12947730 -0.04966881  0.45810811  0.42922601
                   Z  0.16961439  0.19281529  0.16614539 -0.10739451 -0.09629576
  8   H            X -0.41193635  0.29060400  0.40573229 -0.03014291 -0.07471988
                   Y -0.04757836 -0.01484754 -0.07985180  0.24138159  0.25639881
                   Z -0.19044353  0.05232695  0.05581271  0.40575860  0.40264034

 TRANS. SAYVETZ    X  0.00000163  0.00005062 -0.00000044 -0.00000030  0.00004152
                   Y  0.00000016  0.00005001 -0.00000094 -0.00000058  0.00005236
                   Z  0.00002153 -0.00000146 -0.00005288  0.00000619  0.00000034
               TOTAL  0.00002159  0.00007118  0.00005289  0.00000622  0.00006683

   ROT. SAYVETZ    X -0.00065945 -0.00732041  0.00010355 -0.00001426 -0.01196062
                   Y  0.00016411  0.01481241 -0.00037785 -0.00010071  0.00896156
                   Z -0.03005952  0.00116298 -0.00870328 -0.00149474 -0.00093101
               TOTAL  0.03006721  0.01656347  0.00871209  0.00149820  0.01497440

                           21          22          23          24
       FREQUENCY:      2979.62     2982.34     3036.88     3050.22  
        SYMMETRY:         A           A           A           A   
    REDUCED MASS:      1.05637     1.05894     1.11007     1.11166
    IR INTENSITY:      0.77638     0.23729     0.20601     0.85521

  1   C            X -0.00445379  0.00437815 -0.02046983  0.02148850
                   Y  0.03746925 -0.04828148 -0.02520498  0.01851530
                   Z  0.01896671 -0.01206915  0.05453418 -0.06005132
  2   C            X -0.00496613 -0.00355092 -0.02131813 -0.02068426
                   Y  0.04427318  0.04244134 -0.02546494 -0.01722460
                   Z -0.02022383 -0.00872757 -0.05698009 -0.05797426
  3   F            X  0.00097127  0.00104127  0.00030254  0.00026667
                   Y  0.00019304  0.00034504  0.00042040  0.00001753
                   Z -0.00042785 -0.00057128  0.00023333  0.00051680
  4   H            X  0.15549816  0.11818479  0.13514341  0.14930652
                   Y -0.13208487 -0.10187178 -0.12033999 -0.13008591
                   Z  0.50472326  0.37882500  0.41466711  0.45563506
  5   H            X -0.11627650 -0.11709442  0.11297442  0.09341056
                   Y -0.39714345 -0.38863869  0.41595609  0.34982153
                   Z -0.26808053 -0.26324175  0.26960508  0.22472000
  6   F            X  0.00081102 -0.00117762  0.00028438 -0.00027514
                   Y  0.00014152 -0.00037203  0.00041639 -0.00003365
                   Z  0.00033993 -0.00062849 -0.00021405  0.00052558
  7   H            X  0.13689647 -0.14052703  0.12856774 -0.15418663
                   Y -0.11446683  0.11926887 -0.11317522  0.13271411
                   Z -0.44509384  0.45142713 -0.39463031  0.47071106
  8   H            X -0.09759127  0.13215937  0.10984130 -0.09794672
                   Y -0.33592224  0.44128923  0.40510423 -0.36751475
                   Z  0.22507529 -0.29679070 -0.26088229  0.23457435

 TRANS. SAYVETZ    X -0.00003712  0.00000212  0.00002887 -0.00000004
                   Y -0.00001772  0.00000135  0.00000141 -0.00000070
                   Z -0.00000142 -0.00002027 -0.00000008 -0.00002043
               TOTAL  0.00004116  0.00002042  0.00002891  0.00002044

   ROT. SAYVETZ    X  0.00209751 -0.00004718 -0.00211273 -0.00014629
                   Y -0.00195388  0.00007855  0.00209605  0.00012239
                   Z  0.00018988  0.00069531 -0.00010988 -0.00096929
               TOTAL  0.00287285  0.00070132  0.00297811  0.00098788

 REFERENCE ON SAYVETZ CONDITIONS - A. SAYVETZ, J.CHEM.PHYS., 7, 383-389(1939).

 NOTE - THE MODES J,K ARE ORTHONORMALIZED ACCORDING TO
 SUM ON I   M(I) * (X(I,J)*X(I,K) + Y(I,J)*Y(I,K) + Z(I,J)*Z(I,K)) = DELTA(J,K)

  MODE FREQ(CM**-1)  SYMMETRY  RED. MASS  IR INTENS.
     1     154.069    A        2.903307    0.229709
     2       7.089    A        5.064363    0.033770
     3       0.270    A        7.875840    0.000235
     4       0.020    A        8.253247    0.000000
     5       0.017    A        8.246234    0.000000
     6       5.484    A        2.805392    0.100498
     7      10.230    A        8.883415    0.001138
     8     372.864    A        3.077315    0.359244
     9     403.766    A        5.008784    0.004584
    10     795.906    A        1.585958    0.175810
    11     979.674    A        3.986503    2.906871
    12    1015.084    A        3.228033    0.000174
    13    1052.127    A        4.055304    0.588850
    14    1091.034    A        2.231610    0.921245
    15    1205.941    A        1.066821    0.072123
    16    1218.471    A        1.117887    0.076513
    17    1313.161    A        1.206065    0.201714
    18    1382.097    A        1.370241    0.050918
    19    1426.778    A        1.077014    0.000953
    20    1439.020    A        1.085624    0.161310
    21    2979.618    A        1.056368    0.776378
    22    2982.337    A        1.058944    0.237294
    23    3036.883    A        1.110065    0.206013
    24    3050.216    A        1.111660    0.855210

     -------------------------------
     THERMOCHEMISTRY AT T=  298.15 K
     -------------------------------

 USING IDEAL GAS, RIGID ROTOR, HARMONIC NORMAL MODE APPROXIMATIONS.
 P=  1.01325E+05 PASCAL.
 ALL FREQUENCIES ARE SCALED BY   1.00000
 THE MOMENTS OF INERTIA ARE (IN AMU*BOHR**2)
     73.56178   463.35106   469.28292
 THE ROTATIONAL SYMMETRY NUMBER IS  1.0
 THE ROTATIONAL CONSTANTS ARE (IN GHZ)
     24.51121     3.89141     3.84222
   1 IMAGINARY FREQUENCY VIBRATION(S) IS(ARE) EXCLUDED
     FROM THE FOLLOWING THERMOCHEMICAL ANALYSIS.
      8 -     24 VIBRATIONAL MODES ARE USED IN THERMOCHEMISTRY.
 THE HARMONIC ZERO POINT ENERGY IS (SCALED BY   1.000)
        0.058651 HARTREE/MOLECULE    12872.489505 CM**-1/MOLECULE 
       36.804331 KCAL/MOL              153.989322 KJ/MOL

               Q               LN Q
 ELEC.     1.00000E+00       0.000000
 TRANS.    2.10886E+07      16.864241
 ROT.      4.52731E+04      10.720468
 VIB.      1.48418E+00       0.394865
 TOT.      1.41701E+12      27.979574

              E         H         G         CV        CP        S
           KJ/MOL    KJ/MOL    KJ/MOL   J/MOL-K   J/MOL-K   J/MOL-K
 ELEC.      0.000     0.000     0.000     0.000     0.000     0.000
 TRANS.     3.718     6.197   -41.805    12.472    20.786   161.002
 ROT.       3.718     3.718   -26.575    12.472    12.472   101.606
 VIB.     156.394   156.394   153.010    24.509    24.509    11.350
 TOTAL    163.831   166.310    84.630    49.452    57.767   273.958
 VIB. THERMAL CORRECTION E(T)-E(0) = H(T)-H(0) =  2405.106 J/MOL

              E         H         G         CV        CP        S
         KCAL/MOL  KCAL/MOL  KCAL/MOL CAL/MOL-K CAL/MOL-K CAL/MOL-K
 ELEC.      0.000     0.000     0.000     0.000     0.000     0.000
 TRANS.     0.889     1.481    -9.992     2.981     4.968    38.480
 ROT.       0.889     0.889    -6.352     2.981     2.981    24.284
 VIB.      37.379    37.379    36.570     5.858     5.858     2.713
 TOTAL     39.157    39.749    20.227    11.819    13.807    65.478
 VIB. THERMAL CORRECTION E(T)-E(0) = H(T)-H(0) =   574.834 CAL/MOL
 ......END OF NORMAL COORDINATE ANALYSIS......
 STEP CPU TIME =     0.01 TOTAL CPU TIME =        477.1 (      8.0 MIN)
 TOTAL WALL CLOCK TIME=        480.8 SECONDS, CPU UTILIZATION IS    99.22%
                998529  WORDS OF DYNAMIC MEMORY USED
 EXECUTION OF GAMESS TERMINATED NORMALLY Wed Oct  9 10:44:57 2019
 DDI: 263640 bytes (0.3 MB / 0 MWords) used by master data server.

 ----------------------------------------
 CPU timing information for all processes
 ========================================
 0: 470.809 + 6.274 = 477.84
 ----------------------------------------
 ddikick.x: exited gracefully.
----- accounting info -----
Files used on the master node d12chas535.crc.nd.edu were:
-rw-r--r-- 1 wschnei1 campus 128092 Oct  9 10:44 /scratch365/wschnei1/vib-ts.F07
Wed Oct  9 10:45:00 EDT 2019
0.463u 0.386s 8:04.78 0.1%	0+0k 120+296io 1pf+0w
