----- GAMESS execution script 'rungms' -----
This job is running on host d12chas537.crc.nd.edu
under operating system Linux at Sun Oct 6 23:29:31 EDT 2019
SGE has assigned the following compute nodes to this run:
Available scratch disk space (Kbyte units) at beginning of the job is
Filesystem      1K-blocks     Used  Available Use% Mounted on
/dev/sda2      1949705068 69019408 1880685660   4% /
GAMESS temporary binary files will be written to /tmp/474117.1.debug
GAMESS supplementary output files will be written to /afs/crc.nd.edu/user/w/wschnei1/scr
Copying input file opt-dlc-PC1.inp to your run's scratch directory...
reading your own /afs/crc.nd.edu/user/w/wschnei1/.gmsrc

 Distributed Data Interface kickoff program.
 Initiating 1 compute processes on 1 nodes to run the following command:
 /afs/crc.nd.edu/x86_64_linux/g/gamess/nov-2017/gamess/gamess.00.x opt-dlc-PC1 

          ******************************************************
          *         GAMESS VERSION = 11 NOV 2017 (R3)         *
          *             FROM IOWA STATE UNIVERSITY             *
          * M.W.SCHMIDT, K.K.BALDRIDGE, J.A.BOATZ, S.T.ELBERT, *
          *   M.S.GORDON, J.H.JENSEN, S.KOSEKI, N.MATSUNAGA,   *
          *          K.A.NGUYEN, S.J.SU, T.L.WINDUS,           *
          *       TOGETHER WITH M.DUPUIS, J.A.MONTGOMERY       *
          *         J.COMPUT.CHEM.  14, 1347-1363(1993)        *
          **************** 64 BIT INTEL VERSION ****************

  SINCE 1993, STUDENTS AND POSTDOCS WORKING AT IOWA STATE UNIVERSITY
  AND ALSO IN THEIR VARIOUS JOBS AFTER LEAVING ISU HAVE MADE IMPORTANT
  CONTRIBUTIONS TO THE CODE:
     IVANA ADAMOVIC, CHRISTINE AIKENS, YURI ALEXEEV, POOJA ARORA,
     ANDREY ASADCHEV, ROB BELL, PRADIPTA BANDYOPADHYAY, JONATHAN BENTZ,
     BRETT BODE, KURT BRORSEN, CALEB CARLIN, GALINA CHABAN, WEI CHEN,
     CHEOL HO CHOI, PAUL DAY, ALBERT DEFUSCO, NUWAN DESILVA, TIM DUDLEY,
     DMITRI FEDOROV, ALEX FINDLATER, GRAHAM FLETCHER, MARK FREITAG,
     KURT GLAESEMANN, ANASTASIA GUININA,
     DAN KEMP, GRANT MERRILL, NORIYUKI MINEZAWA, JONATHAN MULLIN,
     TAKESHI NAGATA, SEAN NEDD, HEATHER NETZLOFF, BOSILJKA NJEGIC, RYAN OLSON,
     MIKE PAK, BUU PHAM,
     SPENCER PRUITT, LUKE ROSKOP, JIM SHOEMAKER, LYUDMILA SLIPCHENKO,
     TONY SMITH, SAROM SOK LEANG, JIE SONG, TETSUYA TAKETSUGU, SIMON WEBB,
     PENG XU, SOOHAENG YOO, FEDERICO ZAHARIEV

  ADDITIONAL CODE HAS BEEN PROVIDED BY COLLABORATORS IN OTHER GROUPS:
     IOWA STATE UNIVERSITY:
          JOE IVANIC, AARON WEST, LAIMUTIS BYTAUTAS, KLAUS RUEDENBERG
     UNIVERSITY OF TOKYO: KIMIHIKO HIRAO, TAKAHITO NAKAJIMA,
          TAKAO TSUNEDA, MUNEAKI KAMIYA, SUSUMU YANAGISAWA,
          KIYOSHI YAGI, MAHITO CHIBA, SEIKEN TOKURA, NAOAKI KAWAKAMI
     UNIVERSITY OF AARHUS: FRANK JENSEN
     UNIVERSITY OF IOWA: VISVALDAS KAIRYS, HUI LI
     NATIONAL INST. OF STANDARDS AND TECHNOLOGY: WALT STEVENS, DAVID GARMER
     UNIVERSITY OF PISA: BENEDETTA MENNUCCI, JACOPO TOMASI
     UNIVERSITY OF MEMPHIS: HENRY KURTZ, PRAKASHAN KORAMBATH
     UNIVERSITY OF ALBERTA: TOBY ZENG, MARIUSZ KLOBUKOWSKI
     UNIVERSITY OF NEW ENGLAND: MARK SPACKMAN
     MIE UNIVERSITY: HIROAKI UMEDA
     NAT. INST. OF ADVANCED INDUSTRIAL SCIENCE AND TECHNOLOGY: KAZUO KITAURA
     MICHIGAN STATE UNIVERSITY:
          KAROL KOWALSKI, MARTA WLOCH, JEFFREY GOUR, JESSE LUTZ,
          WEI LI, PIOTR PIECUCH
     UNIVERSITY OF SILESIA: MONIKA MUSIAL, STANISLAW KUCHARSKI
     FACULTES UNIVERSITAIRES NOTRE-DAME DE LA PAIX:
          OLIVIER QUINET, BENOIT CHAMPAGNE
     UNIVERSITY OF CALIFORNIA - SANTA BARBARA: BERNARD KIRTMAN
     INSTITUTE FOR MOLECULAR SCIENCE:
          KAZUYA ISHIMURA, MICHIO KATOUDA, AND SHIGERU NAGASE
     UNIVERSITY OF NOTRE DAME: ANNA POMOGAEVA, DAN CHIPMAN
     KYUSHU UNIVERSITY:
          HARUYUKI NAKANO,
          FENG LONG GU, JACEK KORCHOWIEC, MARCIN MAKOWSKI, AND YURIKO AOKI,
          HIROTOSHI MORI AND EISAKU MIYOSHI
     PENNSYLVANIA STATE UNIVERSITY:
          TZVETELIN IORDANOV, CHET SWALINA, JONATHAN SKONE,
          SHARON HAMMES-SCHIFFER
     WASEDA UNIVERSITY:
          MASATO KOBAYASHI, TOMOKO AKAMA, TSUGUKI TOUMA,
          TAKESHI YOSHIKAWA, YASUHIRO IKABATA, JUNJI SEINO,
          YUYA NAKAJIMA, HIROMI NAKAI
     NANJING UNIVERSITY: SHUHUA LI
     UNIVERSITY OF NEBRASKA:
          PEIFENG SU, DEJUN SI, NANDUN THELLAMUREGE, YALI WANG, HUI LI
     UNIVERSITY OF ZURICH: ROBERTO PEVERATI, KIM BALDRIDGE
     N. COPERNICUS UNIVERSITY AND JACKSON STATE UNIVERSITY:
          MARIA BARYSZ
     UNIVERSITY OF COPENHAGEN: Jimmy Kromann, CASPER STEINMANN
     TOKYO INSTITUTE OF TECHNOLOGY: HIROYA NAKATA
     NAGOYA UNIVERSITY: YOSHIO NISHIMOTO, STEPHAN IRLE
     MOSCOW STATE UNIVERSITY: VLADIMIR MIRONOV

 EXECUTION OF GAMESS BEGUN Sun Oct  6 23:29:32 2019

            ECHO OF THE FIRST FEW INPUT CARDS -
 INPUT CARD> $CONTRL SCFTYP=RHF DFTTYP=PBE RUNTYP=OPTIMIZE COORD=CART NZVAR=9 ISPHER=1 $END 
 INPUT CARD> $BASIS GBASIS=PCseg-1 $END                                                     
 INPUT CARD> $ZMAT DLC=.TRUE. AUTO=.TRUE. $END                                              
 INPUT CARD> $DATA                                                                          
 INPUT CARD>FCH2CH2F cartesian optimization calculation                                     
 INPUT CARD>C1                                                                              
 INPUT CARD>N 7 0.00000000 0.00000000 0.00000000                                            
 INPUT CARD>N 7 0.87068800 0.43708500 0.02898800                                            
 INPUT CARD>O 8 1.32984400 -0.10682200 -0.01102700                                          
 INPUT CARD>H 1 -0.01026300 -0.60188200 0.19954500                                          
 INPUT CARD>H 1 -0.37370800 0.29781100 -0.17504000                                          
 INPUT CARD> $END                                                                           
 INPUT CARD>                                                                                
    1000000 WORDS OF MEMORY AVAILABLE


                    * * * WARNING * * *
 OLD KEYWORD COORD=CART SELECTED, AUTOMATICALLY CHANGED TO COORD=PRINAXIS.
 YOUR MOLECULE'S COORDINATES WILL BE CHANGED TO PRINCIPAL AXES BY
   A) TRANSLATION TO THE CENTER OF MASS, THEN
   B) ROTATION TO HAVE A DIAGONAL MOMENT OF INERTIA TENSOR.

 HOWEVER, NOTHING ELSE IN YOUR INPUT WILL BE ROTATED IN THE SAME WAY,
 SO IF YOU HAVE A $VEC, $VIB, $GRAD, $HESS, EFP PARTICLE COORDINATES,
 OR ANYTHING ELSE THAT DEPENDS ON THE INITIAL ORIENTATION, THAT DATA
 WILL NOT BE USED CORRECTLY IN THIS RUN.

 THE PURPOSE OF COORD=PRINAXIS IS TO BE USED ONCE, ONLY AT THE VERY
 BEGINNING OF A SERIES OF COMPUTATIONS, PERHAPS TO FIND THE SYMMETRY
 UNIQUE ATOMS FROM AN ARBITRARY INITIAL ORIENTATION.

 AFTER THE FIRST RUN, YOU SHOULD USE ONLY COORD=UNIQUE, TO ENSURE THAT
 THE COORDINATES WHICH YOU READ IN ARE THE COORDINATES THAT ARE USED.


     BASIS OPTIONS
     -------------
     GBASIS=PCSEG-1      IGAUSS=       0      POLAR=NONE    
     NDFUNC=       0     NFFUNC=       0     DIFFSP=       F
     NPFUNC=       0      DIFFS=       F     BASNAM=        


     RUN TITLE
     ---------
 FCH2CH2F cartesian optimization calculation                                     

 THE POINT GROUP OF THE MOLECULE IS C1      
 THE ORDER OF THE PRINCIPAL AXIS IS     0

 THE MOMENTS OF INERTIA ARE (AMU-ANGSTROM**2)
 IXX=     3.029   IYY=    15.352   IZZ=    18.215

 ATOM      ATOMIC                      COORDINATES (BOHR)
           CHARGE         X                   Y                   Z
 N           7.0     1.3583047150        0.1685953864       -0.0104411146
 N           7.0    -0.2870572227       -0.6573750875        0.0443385223
 O           8.0    -1.1547360057        0.3704603580       -0.0312782124
 H           1.0     1.3776993952        1.3059873059        0.3666446504
 H           1.0     2.0645101773       -0.3941858676       -0.3412191850

          INTERNUCLEAR DISTANCES (ANGS.)
          ------------------------------

                1 N          2 N          3 O          4 H          5 H     

   1 N       0.0000000    0.9746698 *  1.3341730 *  0.6341810 *  0.5089087 *
   2 N       0.9746698 *  0.0000000    0.7129237 *  1.3728135 *  1.2686789 *
   3 O       1.3341730 *  0.7129237 *  0.0000000    1.4440609 *  1.7586124 *
   4 H       0.6341810 *  1.3728135 *  1.4440609 *  0.0000000    1.0401220 *
   5 H       0.5089087 *  1.2686789 *  1.7586124 *  1.0401220 *  0.0000000  

  * ... LESS THAN  3.000


     ATOMIC BASIS SET
     ----------------
 THE CONTRACTED PRIMITIVE FUNCTIONS HAVE BEEN UNNORMALIZED
 THE CONTRACTED BASIS FUNCTIONS ARE NOW NORMALIZED TO UNITY

  SHELL TYPE  PRIMITIVE        EXPONENT          CONTRACTION COEFFICIENT(S)

 N         

      1   S       1          1726.3200000    0.005526692708
      1   S       2           259.8270000    0.041238777833
      1   S       3            59.0335000    0.182735518857
      1   S       4            16.3509000    0.465933825414
      1   S       5             4.9108400    0.450079961070

      2   S       6             7.7589400   -0.147940502099
      2   S       7             0.7055730    1.051675837690

      3   S       8             0.2092860    1.000000000000

      4   P       9            13.1844000    0.064862763118
      4   P      10             2.8186000    0.339184155940
      4   P      11             0.7655710    0.735827618992

      5   P      12             0.1959490    1.000000000000

      6   D      13             0.9000000    1.000000000000

 N         

      7   S      14          1726.3200000    0.005526692708
      7   S      15           259.8270000    0.041238777833
      7   S      16            59.0335000    0.182735518857
      7   S      17            16.3509000    0.465933825414
      7   S      18             4.9108400    0.450079961070

      8   S      19             7.7589400   -0.147940502099
      8   S      20             0.7055730    1.051675837690

      9   S      21             0.2092860    1.000000000000

     10   P      22            13.1844000    0.064862763118
     10   P      23             2.8186000    0.339184155940
     10   P      24             0.7655710    0.735827618992

     11   P      25             0.1959490    1.000000000000

     12   D      26             0.9000000    1.000000000000

 O         

     13   S      27          2288.6400000    0.005451138222
     13   S      28           344.4160000    0.040718922842
     13   S      29            78.2538000    0.181369420873
     13   S      30            21.7195000    0.465536820246
     13   S      31             6.5590700    0.451211321214

     14   S      32            10.4656000   -0.150211201174
     14   S      33             0.9643510    1.052867983385

     15   S      34             0.2851270    1.000000000000

     16   P      35            17.0590000    0.068749256972
     16   P      36             3.6899900    0.351671941499
     16   P      37             0.9929960    0.724532099722

     17   P      38             0.2449240    1.000000000000

     18   D      39             1.0000000    1.000000000000

 H         

     19   S      40            12.2518000    0.037217389296
     19   S      41             1.8687100    0.253808206955
     19   S      42             0.4182080    0.797386763917

     20   S      43             0.1061000    1.000000000000

     21   P      44             1.0000000    1.000000000000

 H         

     22   S      45            12.2518000    0.037217389296
     22   S      46             1.8687100    0.253808206955
     22   S      47             0.4182080    0.797386763917

     23   S      48             0.1061000    1.000000000000

     24   P      49             1.0000000    1.000000000000

 TOTAL NUMBER OF BASIS SET SHELLS             =   24
 NUMBER OF CARTESIAN GAUSSIAN BASIS FUNCTIONS =   55
 NOTE: THIS RUN WILL RESTRICT THE MO VARIATION SPACE TO SPHERICAL HARMONICS.
 THE NUMBER OF ORBITALS KEPT IN THE VARIATIONAL SPACE WILL BE PRINTED LATER.
 NUMBER OF ELECTRONS                          =   24
 CHARGE OF MOLECULE                           =    0
 SPIN MULTIPLICITY                            =    1
 NUMBER OF OCCUPIED ORBITALS (ALPHA)          =   12
 NUMBER OF OCCUPIED ORBITALS (BETA )          =   12
 TOTAL NUMBER OF ATOMS                        =    5
 THE NUCLEAR REPULSION ENERGY IS      114.9672129547

     LEBEDEV GRID-BASED DFT OPTIONS
     ------------------------------
     DFTTYP=PBE     
     NRAD  =      96     NLEB  =     302
     NRAD0 =      24     NLEB0 =     110
     SWOFF =    5.00E-03 (PURE SCF -> DFT)
     SWITCH=    3.00E-04 (COARSE -> TIGHT GRID)
     THRESH=    0.00E+00 GTHRE=    1.00E+00

 GRIMME'S EMPIRICAL DISPERSION CORRECTION= F

     $CONTRL OPTIONS
     ---------------
 SCFTYP=RHF          RUNTYP=OPTIMIZE     EXETYP=RUN     
 MPLEVL=       0     CITYP =NONE         CCTYP =NONE         VBTYP =NONE    
 DFTTYP=PBE          TDDFT =NONE    
 MULT  =       1     ICHARG=       0     NZVAR =       9     COORD =PRINAXIS
 PP    =NONE         RELWFN=NONE         LOCAL =NONE         NUMGRD=       F
 ISPHER=       1     NOSYM =       0     MAXIT =      30     UNITS =ANGS    
 PLTORB=       F     MOLPLT=       F     AIMPAC=       F     FRIEND=        
 NPRINT=       7     IREST =       0     GEOM  =INPUT   
 NORMF =       0     NORMP =       0     ITOL  =      20     ICUT  =       9
 INTTYP=BEST         GRDTYP=BEST         QMTTOL= 1.0E-06

     $SYSTEM OPTIONS
     ---------------
  REPLICATED MEMORY=     1000000 WORDS (ON EVERY NODE).
 DISTRIBUTED MEMDDI=           0 MILLION WORDS IN AGGREGATE,
 MEMDDI DISTRIBUTED OVER   1 PROCESSORS IS           0 WORDS/PROCESSOR.
 TOTAL MEMORY REQUESTED ON EACH PROCESSOR=     1000000 WORDS.
 TIMLIM=      525600.00 MINUTES, OR     365.0 DAYS.
 PARALL= F  BALTYP=  DLB     KDIAG=    0  COREFL= F
 MXSEQ2=     300 MXSEQ3=     150  mem10=         0

          ----------------
          PROPERTIES INPUT
          ----------------

     MOMENTS            FIELD           POTENTIAL          DENSITY
 IEMOM =       1   IEFLD =       0   IEPOT =       0   IEDEN =       0
 WHERE =COMASS     WHERE =NUCLEI     WHERE =NUCLEI     WHERE =NUCLEI  
 OUTPUT=BOTH       OUTPUT=BOTH       OUTPUT=BOTH       OUTPUT=BOTH    
 IEMINT=       0   IEFINT=       0                     IEDINT=       0
                                                       MORB  =       0
          EXTRAPOLATION IN EFFECT
          DIIS IN EFFECT
 ORBITAL PRINTING OPTION: NPREO=     1    55     2     1

     -------------------------------
     INTEGRAL TRANSFORMATION OPTIONS
     -------------------------------
     NWORD  =            0
     CUTOFF = 1.0E-09     MPTRAN =       0
     DIRTRF =       F     AOINTS =DUP     

          ----------------------
          INTEGRAL INPUT OPTIONS
          ----------------------
 NOPK  =       1 NORDER=       0 SCHWRZ=       F
 
 
 -----------------------------------------------
  STATISTICS ON AUTOMATIC COORDINATE GENERATION 
 -----------------------------------------------
  NUMBER OF USER SPECIFIED BONDS                              0
  NUMBER OF BONDS                                             5
  NUMBER OF ANGLES                                            8
  NUMBER OF TORSIONS                                          4
  NUMBER OF EXTRA COORD.                                      0
  NUMBER OF EXTRA COORD. FOR CONSTRAINTS                      0
  NUMBER OF CONSTRAINED COORD.                                0
 
  TOTAL NUMBER OF PRIMITIVES                                 17
 -----------------------------------------------

   --- ENCODED Z MATRIX ---
 COORD  TYPE   I   J   K   L   M   N
    1      1    1   3
    2      1    1   2
    3      1    1   4
    4      1    1   5
    5      1    2   3
    6      2    1   2   3
    7      2    1   3   2
    8      2    2   1   5
    9      2    2   1   4
   10      2    2   1   3
   11      2    3   1   5
   12      2    3   1   4
   13      2    4   1   5
   14      3    2   3   1   4
   15      3    2   3   1   5
   16      3    3   2   1   5
   17      3    3   2   1   4

          INDEP./SYM. INTERNAL COORDINATES
          --------------------------------
 CRD  1=  -0.2648 (  1) -0.2726 (  2) -0.5797 (  3) -0.7128 (  4)
 CRD  2=  -0.6840 (  3)  0.5300 (  4)  0.2194 (  8) -0.2521 (  9)  0.2264 ( 11)
          -0.2568 ( 12)
 CRD  3=  -0.5436 (  1) -0.5335 (  2)  0.2739 (  3)  0.2252 (  4) -0.1019 (  6)
          -0.1219 (  8) -0.1875 (  9)  0.1522 ( 10) -0.3307 ( 12)  0.3094 ( 13)
 CRD  4=   0.3358 (  1) -0.4312 (  2)  0.4430 (  5)  0.4100 (  6) -0.4696 (  7)
          -0.1808 (  8)  0.1653 (  9) -0.1223 ( 11)  0.1254 ( 12)
 CRD  5=  -0.1801 (  1) -0.1557 (  2) -0.1096 (  3)  0.1422 (  4) -0.6690 (  5)
           0.4423 (  6) -0.1196 (  7) -0.3228 ( 10) -0.2388 ( 11)  0.2557 ( 12)
          -0.1043 ( 15)
 CRD  6=   0.2466 (  1)  0.2748 (  3) -0.3239 (  4)  0.3114 (  6) -0.1770 (  7)
           0.3308 (  8) -0.4036 (  9) -0.1344 ( 10)  0.2586 ( 11) -0.3254 ( 12)
          -0.1618 ( 14) -0.1518 ( 15) -0.1715 ( 16) -0.2810 ( 17)
 CRD  7=  -0.1462 (  4)  0.1104 (  8) -0.2541 (  9)  0.1437 ( 13)  0.6377 ( 14)
           0.6603 ( 17)
 CRD  8=  -0.2234 (  1) -0.2044 (  2)  0.2513 (  8)  0.2180 (  9)  0.4151 ( 11)
           0.1874 ( 12) -0.4693 ( 13) -0.3824 ( 15) -0.4163 ( 16)  0.1489 ( 17)
 CRD  9=  -0.1712 (  2)  0.1350 (  3)  0.3360 (  8)  0.1992 ( 11) -0.3871 ( 13)
           0.6972 ( 15)  0.3739 ( 16)

 THE DETERMINANT OF THE G MATRIX IS 10**(    -1)


                     --------------------
                     INTERNAL COORDINATES
                     --------------------

                 - - ATOMS - -         COORDINATE      COORDINATE
 NO.   TYPE    I  J  K  L  M  N        (BOHR,RAD)       (ANG,DEG)
 ----------------------------------------------------------------
   1 STRETCH   1  3                     2.5212214       1.3341730
   2 STRETCH   1  2                     1.8418588       0.9746698
   3 STRETCH   1  4                     1.1984282       0.6341810
   4 STRETCH   1  5                     0.9616980       0.5089087
   5 STRETCH   2  3                     1.3472305       0.7129237
   6 BEND      1  2  3                  1.8044552     103.3876684
   7 BEND      1  3  2                  0.7904790      45.2911103
   8 BEND      2  1  5                  1.9864551     113.8154923
   9 BEND      2  1  4                  2.0160683     115.5122034
  10 BEND      2  1  3                  0.5466584      31.3212213
  11 BEND      3  1  5                  2.4590334     140.8922362
  12 BEND      3  1  4                  1.5135079      86.7176128
  13 BEND      4  1  5                  2.2806620     130.6723043
  14 TORSION   2  3  1  4              -2.7495922    -157.5400287
  15 TORSION   2  3  1  5               0.6597795      37.8025820
  16 TORSION   3  2  1  5              -2.7052603    -154.9999984
  17 TORSION   3  2  1  4               0.4363334      25.0000613

     ------------------------------------------
     THE POINT GROUP IS C1 , NAXIS= 0, ORDER= 1
     ------------------------------------------

 -- VARIATIONAL SPACE WILL BE RESTRICTED TO PURE SPHERICAL HARMONICS ONLY --
 AFTER EXCLUDING CONTAMINANT COMBINATIONS FROM THE CARTESIAN GAUSSIAN BASIS
 SET, THE NUMBER OF SPHERICAL HARMONICS KEPT IN THE VARIATION SPACE IS   52

     DIMENSIONS OF THE SYMMETRY SUBSPACES ARE
 A   =   52

 ..... DONE SETTING UP THE RUN .....
 STEP CPU TIME =     0.02 TOTAL CPU TIME =          0.0 (      0.0 MIN)
 TOTAL WALL CLOCK TIME=          0.0 SECONDS, CPU UTILIZATION IS    66.67%


          -----------------------------
          STATIONARY POINT LOCATION RUN
          -----------------------------

 OBTAINING INITIAL HESSIAN, HESS=GUESS   
 DIAGONAL GUESS HESSIAN IN INTERNAL COORDS IS
     1  0.3786     2  0.8232     3  0.7333     4  0.9355     5  1.2669
     6  0.3201     7  0.2805     8  0.2786     9  0.2685    10  0.2648
    11  0.2461    12  0.2377    13  0.2494    14  0.2500    15  0.2500
    16  0.2500    17  0.2500
 TRANSFORMING HESSIAN TO SYMMETRY COORDINATES

          PARAMETERS CONTROLLING GEOMETRY SEARCH ARE
          METHOD =QA                  UPHESS =BFGS    
          NNEG   =         0          NFRZ   =         0
          NSTEP  =        50          IFOLOW =         1
          HESS   =GUESS               RESTAR =         F
          IHREP  =         0          HSSEND =         F
          NPRT   =         0          NPUN   =         0
          OPTTOL = 1.000E-04          RMIN   = 1.500E-03
          RMAX   = 1.000E-01          RLIM   = 7.000E-02
          DXMAX  = 3.000E-01          PURIFY =         F
          MOVIE  =         F          TRUPD  =         T
          TRMAX  = 5.000E-01          TRMIN  = 5.000E-02
          ITBMAT =         5          STPT   =         F
          STSTEP = 1.000E-02          PROJCT=          T

 BEGINNING GEOMETRY SEARCH POINT NSERCH=   0 ...

 COORDINATES OF ALL ATOMS ARE (ANGS)
   ATOM   CHARGE       X              Y              Z
 ------------------------------------------------------------
 N           7.0   0.7187839527   0.0892168428  -0.0055252003
 N           7.0  -0.1519041515  -0.3478679405   0.0234629372
 O           8.0  -0.6110600231   0.1960391932  -0.0165517184
 H           1.0   0.7290471762   0.6910987701   0.1940200076
 H           1.0   1.0924918166  -0.2085941931  -0.1805654297


                     --------------------
                     INTERNAL COORDINATES
                     --------------------

                 - - ATOMS - -         COORDINATE      COORDINATE
 NO.   TYPE    I  J  K  L  M  N        (BOHR,RAD)       (ANG,DEG)
 ----------------------------------------------------------------
   1 STRETCH   1  3                     2.5212214       1.3341730
   2 STRETCH   1  2                     1.8418588       0.9746698
   3 STRETCH   1  4                     1.1984282       0.6341810
   4 STRETCH   1  5                     0.9616980       0.5089087
   5 STRETCH   2  3                     1.3472305       0.7129237
   6 BEND      1  2  3                  1.8044552     103.3876684
   7 BEND      1  3  2                  0.7904790      45.2911103
   8 BEND      2  1  5                  1.9864551     113.8154923
   9 BEND      2  1  4                  2.0160683     115.5122034
  10 BEND      2  1  3                  0.5466584      31.3212213
  11 BEND      3  1  5                  2.4590334     140.8922362
  12 BEND      3  1  4                  1.5135079      86.7176128
  13 BEND      4  1  5                  2.2806620     130.6723043
  14 TORSION   2  3  1  4              -2.7495922    -157.5400287
  15 TORSION   2  3  1  5               0.6597795      37.8025820
  16 TORSION   3  2  1  5              -2.7052603    -154.9999984
  17 TORSION   3  2  1  4               0.4363334      25.0000613

          ********************
          1 ELECTRON INTEGRALS
          ********************
 ...... END OF ONE-ELECTRON INTEGRALS ......
 STEP CPU TIME =     0.00 TOTAL CPU TIME =          0.0 (      0.0 MIN)
 TOTAL WALL CLOCK TIME=          0.0 SECONDS, CPU UTILIZATION IS    66.67%

          -------------
          GUESS OPTIONS
          -------------
          GUESS =HUCKEL            NORB  =       0          NORDER=       0
          MIX   =       F          PRTMO =       F          PUNMO =       F
          TOLZ  = 1.0E-08          TOLE  = 1.0E-05
          SYMDEN=       F          PURIFY=       F

 INITIAL GUESS ORBITALS GENERATED BY HUCKEL   ROUTINE.
 HUCKEL GUESS REQUIRES     27116 WORDS.

 STATISTICS FOR GENERATION OF SYMMETRY ORBITAL -Q- MATRIX
 NUMBER OF CARTESIAN ATOMIC ORBITALS=         55
 NUMBER OF SPHERICAL CONTAMINANTS DROPPED=     3
 NUMBER OF LINEARLY DEPENDENT MOS DROPPED=     0
 TOTAL NUMBER OF MOS IN VARIATION SPACE=      52

 SYMMETRIES FOR INITIAL GUESS ORBITALS FOLLOW.   BOTH SET(S).
    12 ORBITALS ARE OCCUPIED (    3 CORE ORBITALS).
     4=A        5=A        6=A        7=A        8=A        9=A       10=A   
    11=A       12=A       13=A       14=A       15=A       16=A       17=A   
    18=A       19=A       20=A       21=A       22=A   
 ...... END OF INITIAL ORBITAL SELECTION ......
 STEP CPU TIME =     0.00 TOTAL CPU TIME =          0.0 (      0.0 MIN)
 TOTAL WALL CLOCK TIME=          0.0 SECONDS, CPU UTILIZATION IS    50.00%

                    ----------------------
                    AO INTEGRAL TECHNOLOGY
                    ----------------------
     S,P,L SHELL ROTATED AXIS INTEGRALS, REPROGRAMMED BY
        KAZUYA ISHIMURA (IMS) AND JOSE SIERRA (SYNSTAR).
     S,P,D,L SHELL ROTATED AXIS INTEGRALS PROGRAMMED BY
        KAZUYA ISHIMURA (INSTITUTE FOR MOLECULAR SCIENCE).
     S,P,D,F,G SHELL TO TOTAL QUARTET ANGULAR MOMENTUM SUM 5,
        ERIC PROGRAM BY GRAHAM FLETCHER (ELORET AND NASA ADVANCED
        SUPERCOMPUTING DIVISION, AMES RESEARCH CENTER).
     S,P,D,F,G,L SHELL GENERAL RYS QUADRATURE PROGRAMMED BY
        MICHEL DUPUIS (PACIFIC NORTHWEST NATIONAL LABORATORY).

          --------------------
          2 ELECTRON INTEGRALS
          --------------------

 THE -PK- OPTION IS OFF, THE INTEGRALS ARE NOT IN SUPERMATRIX FORM.
 STORING   15000 INTEGRALS/RECORD ON DISK, USING 12 BYTES/INTEGRAL.
 TWO ELECTRON INTEGRAL EVALUATION REQUIRES   90696 WORDS OF MEMORY.
 II,JST,KST,LST =  1  1  1  1 NREC =         1 INTLOC =    1
 II,JST,KST,LST =  2  1  1  1 NREC =         1 INTLOC =    2
 II,JST,KST,LST =  3  1  1  1 NREC =         1 INTLOC =    7
 II,JST,KST,LST =  4  1  1  1 NREC =         1 INTLOC =   22
 II,JST,KST,LST =  5  1  1  1 NREC =         1 INTLOC =   67
 II,JST,KST,LST =  6  1  1  1 NREC =         1 INTLOC =  214
 II,JST,KST,LST =  7  1  1  1 NREC =         1 INTLOC = 1189
 II,JST,KST,LST =  8  1  1  1 NREC =         1 INTLOC = 3245
 II,JST,KST,LST =  9  1  1  1 NREC =         1 INTLOC = 5710
 II,JST,KST,LST = 10  1  1  1 NREC =         1 INTLOC = 8635
 II,JST,KST,LST = 11  1  1  1 NREC =         2 INTLOC = 5560
 II,JST,KST,LST = 12  1  1  1 NREC =         3 INTLOC = 8256
 II,JST,KST,LST = 13  1  1  1 NREC =         7 INTLOC = 6200
 II,JST,KST,LST = 14  1  1  1 NREC =         8 INTLOC = 5696
 II,JST,KST,LST = 15  1  1  1 NREC =         9 INTLOC = 7072
 II,JST,KST,LST = 16  1  1  1 NREC =        10 INTLOC =10036
 II,JST,KST,LST = 17  1  1  1 NREC =        14 INTLOC =14244
 II,JST,KST,LST = 18  1  1  1 NREC =        20 INTLOC = 5965
 II,JST,KST,LST = 19  1  1  1 NREC =        35 INTLOC = 7019
 II,JST,KST,LST = 20  1  1  1 NREC =        38 INTLOC =10669
 II,JST,KST,LST = 21  1  1  1 NREC =        42 INTLOC = 2561
 II,JST,KST,LST = 22  1  1  1 NREC =        53 INTLOC =14027
 II,JST,KST,LST = 23  1  1  1 NREC =        58 INTLOC = 5331
 II,JST,KST,LST = 24  1  1  1 NREC =        63 INTLOC =  615
 TOTAL NUMBER OF NONZERO TWO-ELECTRON INTEGRALS =             1166774
         78 INTEGRAL RECORDS WERE STORED ON DISK FILE  8.
  ...... END OF TWO-ELECTRON INTEGRALS .....
 STEP CPU TIME =     0.18 TOTAL CPU TIME =          0.2 (      0.0 MIN)
 TOTAL WALL CLOCK TIME=          0.2 SECONDS, CPU UTILIZATION IS    95.24%

          --------------------------
               R-PBE SCF CALCULATION
          --------------------------

     NUCLEAR ENERGY =       114.9672129547
     MAXIT =   30     NPUNCH=    2
     EXTRAP=T  DAMP=F  SHIFT=F  RSTRCT=F  DIIS=T  DEM=F  SOSCF=F
         DENSITY MATRIX CONVERGENCE THRESHOLD=  1.00E-05
     COARSE -> FINE DFT GRID SWITCH THRESHOLD=  3.00E-04 (SWITCH IN $DFT)
                   HF -> DFT SWITCH THRESHOLD=  5.00E-03 (SWOFF IN $DFT)
     MEMORY REQUIRED FOR RHF ITERS=    248522 WORDS.

 DFT CODE IS SWITCHING FROM THE FINE GRID NRAD= 96,  NLEB=  302
                      TO THE COARSE GRID NRAD0= 24, NLEB0=  110

     EXCHANGE FUNCTIONAL   =PBE       
     CORRELATION FUNCTIONAL=PBE       
     DFT THRESHOLD         =.276E-07
     GRID CHANGE THRESHOLD =.300E-03
 FOR AN EULER-MACLAURIN QUADRATURE USING  96 RADIAL POINTS:
 SMALLEST GAUSSIAN PRIMITIVE EXPONENT=        0.1061000000 OF TYPE -S-
 ON ATOM NUMBER   4 HAS RADIAL NORMALIZATION=  1.000000
  LARGEST GAUSSIAN PRIMITIVE EXPONENT=     2288.6400000000 OF TYPE -S-
 ON ATOM NUMBER   3 HAS RADIAL NORMALIZATION=  1.000000
 DFT IS SWITCHED OFF, PERFORMING PURE SCF UNTIL SWOFF THRESHOLD IS REACHED.

 ITER EX DEM     TOTAL ENERGY        E CHANGE  DENSITY CHANGE    DIIS ERROR
   1  0  0     -180.1971821013  -180.1971821013   0.468455451   0.625360750
          * * *   INITIATING DIIS PROCEDURE   * * *
   2  1  0     -181.5341192393    -1.3369371381   0.284622876   0.187484544
   3  2  0     -181.6477015663    -0.1135823269   0.053138780   0.055147324
   4  3  0     -181.6658142901    -0.0181127238   0.048105247   0.009810213
   5  4  0     -181.6677292682    -0.0019149781   0.018614779   0.002126847
   6  5  0     -181.6679212323    -0.0001919640   0.005925572   0.000808551
   7  6  0     -181.6679476094    -0.0000263771   0.003104113   0.000374304
 CONVERGED TO SWOFF, SO DFT CALCULATION IS NOW SWITCHED ON.
          * * *   INITIATING DIIS PROCEDURE   * * *
   8  7  0     -182.4187533890    -0.7508057797   0.386632174   0.079044198
   9  8  0     -182.4331599480    -0.0144065589   0.260314123   0.021921043
  10  9  0     -182.4293875994     0.0037723486   0.121969118   0.033219180
  11 10  0     -182.4359795385    -0.0065919391   0.007568203   0.003020728
  12 11  0     -182.4360160634    -0.0000365248   0.003387548   0.001097367
  13 12  0     -182.4360220620    -0.0000059986   0.000155006   0.000095572
 DFT CODE IS SWITCHING BACK TO THE FINE GRID
          * * *   INITIATING DIIS PROCEDURE   * * *
  14 13  0     -182.4404906967    -0.0044686347   0.004334072   0.001524399
  15 14  0     -182.4405003933    -0.0000096966   0.000772719   0.000327154
  16 15  0     -182.4405003869     0.0000000064   0.001059127   0.000240076
  17 16  0     -182.4405006235    -0.0000002367   0.000493949   0.000079920
  18 17  0     -182.4405006746    -0.0000000511   0.000028708   0.000022857
  19 18  0     -182.4405006762    -0.0000000016   0.000005411   0.000001714
  20 19  0     -182.4405006762    -0.0000000000   0.000000715   0.000000652

          -----------------
          DENSITY CONVERGED
          -----------------
     TIME TO FORM FOCK OPERATORS=       4.1 SECONDS (       0.2 SEC/ITER)
     TIME TO SOLVE SCF EQUATIONS=       0.0 SECONDS (       0.0 SEC/ITER)

 FINAL R-PBE ENERGY IS     -182.4405006762 AFTER  20 ITERATIONS
 DFT EXCHANGE + CORRELATION ENERGY =       -24.6378648632
 TOTAL ELECTRON NUMBER             =        24.0001113397

          ------------
          EIGENVECTORS
          ------------

                      1          2          3          4          5
                  -18.8298   -14.1809   -13.9641    -1.6056    -1.1163
                     A          A          A          A          A   
    1  N  1  S    0.000134   0.009980   0.989999  -0.089020  -0.214817
    2  N  1  S    0.001073  -0.004758   0.028459   0.142484   0.266513
    3  N  1  S   -0.007679   0.008220  -0.031952  -0.091007  -0.127826
    4  N  1  X   -0.001504   0.001190  -0.002738  -0.135560  -0.060849
    5  N  1  Y   -0.000127   0.000497  -0.001454  -0.010698  -0.092944
    6  N  1  Z   -0.000060   0.000098  -0.000060   0.004924  -0.014378
    7  N  1  X    0.001085  -0.006860   0.001390   0.021931  -0.013178
    8  N  1  Y    0.002164  -0.000027   0.002890   0.019331   0.022952
    9  N  1  Z    0.000698   0.001236   0.000504  -0.000104   0.007163
   10  N  1 XX   -0.001353  -0.001773   0.001657  -0.005688   0.001262
   11  N  1 YY    0.000868   0.001049  -0.000019   0.012182   0.004558
   12  N  1 ZZ    0.000484   0.000724  -0.001638  -0.006494  -0.005820
   13  N  1 XY    0.002265   0.002403  -0.000239   0.020941  -0.010930
   14  N  1 XZ    0.000504   0.000790  -0.000593   0.003556  -0.002052
   15  N  1 YZ    0.000306  -0.000003   0.000484   0.005460   0.003520
   16  N  2  S    0.001092   0.990508  -0.011480  -0.239952   0.019193
   17  N  2  S   -0.011017   0.038054  -0.003657   0.273403   0.057068
   18  N  2  S    0.031228  -0.019343   0.012747   0.155363   0.137087
   19  N  2  X    0.002465  -0.003580  -0.000385  -0.088968   0.450766
   20  N  2  Y   -0.003898   0.011463  -0.000947   0.285390  -0.022243
   21  N  2  Z    0.000409  -0.000543   0.000048  -0.015832  -0.002814
   22  N  2  X   -0.003370  -0.005026   0.004307   0.044692   0.075930
   23  N  2  Y    0.008935  -0.003085   0.002836   0.020702   0.035488
   24  N  2  Z   -0.000739   0.000150   0.000226   0.000087   0.004223
   25  N  2 XX   -0.001213   0.000353  -0.000776  -0.019218   0.012341
   26  N  2 YY    0.000875   0.003314   0.000458   0.043587  -0.010350
   27  N  2 ZZ    0.000338  -0.003667   0.000318  -0.024369  -0.001991
   28  N  2 XY    0.000121  -0.003150   0.001379  -0.017283   0.062528
   29  N  2 XZ    0.000248   0.000412   0.000277   0.003413  -0.004278
   30  N  2 YZ    0.000007  -0.000391  -0.000200  -0.003625   0.001021
   31  O  3  S    0.992444  -0.010768   0.000431  -0.209374   0.120291
   32  O  3  S    0.044839  -0.007334   0.002156   0.282110  -0.147539
   33  O  3  S   -0.036397  -0.000286  -0.003060   0.143373  -0.147049
   34  O  3  X    0.007052   0.000502  -0.000349   0.219755   0.036949
   35  O  3  Y   -0.008214  -0.001959  -0.000844  -0.176381   0.242013
   36  O  3  Z    0.000774   0.000115   0.000250   0.017417  -0.019837
   37  O  3  X   -0.005099  -0.001315  -0.001323   0.008904   0.003374
   38  O  3  Y    0.004740   0.000881  -0.000178  -0.013381   0.023009
   39  O  3  Z   -0.000435  -0.000269  -0.000520   0.000071  -0.011665
   40  O  3 XX    0.000476  -0.000106  -0.001506   0.010101   0.015914
   41  O  3 YY    0.001666   0.002467   0.000852   0.013355  -0.029601
   42  O  3 ZZ   -0.002142  -0.002361   0.000654  -0.023456   0.013688
   43  O  3 XY   -0.003080  -0.004364  -0.000286  -0.033550   0.023734
   44  O  3 XZ    0.000192   0.000223  -0.000177   0.003252  -0.003335
   45  O  3 YZ   -0.000426  -0.000433  -0.000192  -0.003564   0.004212
   46  H  4  S   -0.000775  -0.000095   0.003593   0.042039   0.182363
   47  H  4  S   -0.001630  -0.000655   0.002349  -0.004039  -0.011236
   48  H  4  X   -0.001611  -0.001317  -0.000159  -0.012213   0.001709
   49  H  4  Y    0.000284  -0.000330  -0.002555  -0.002473  -0.022125
   50  H  4  Z   -0.000121  -0.000142  -0.000725   0.000090  -0.006823
   51  H  5  S    0.003222   0.005344   0.009935   0.056764   0.236148
   52  H  5  S    0.001719   0.004282   0.005926  -0.007600   0.049099
   53  H  5  X    0.000811   0.000671  -0.005193   0.009157  -0.012293
   54  H  5  Y    0.000262   0.000749   0.003767   0.009379   0.012709
   55  H  5  Z    0.000752   0.000471   0.002100   0.004765   0.003042

                      6          7          8          9         10
                   -0.8586    -0.8021    -0.7423    -0.5260    -0.4888
                     A          A          A          A          A   
    1  N  1  S    0.048214  -0.092245  -0.091049   0.019848   0.005004
    2  N  1  S   -0.036077   0.107032   0.128087  -0.047543  -0.078038
    3  N  1  S    0.145334  -0.183578  -0.077205   0.179490  -0.149926
    4  N  1  X   -0.183706   0.279165   0.242838  -0.072181   0.235246
    5  N  1  Y    0.242421  -0.089783   0.402946  -0.007035  -0.216217
    6  N  1  Z    0.206724   0.071920  -0.008319   0.034408  -0.261944
    7  N  1  X    0.018138   0.035238   0.085174  -0.093455   0.014434
    8  N  1  Y   -0.097708   0.060967   0.000123  -0.081439   0.073640
    9  N  1  Z   -0.006269   0.048205  -0.038475  -0.004448  -0.052654
   10  N  1 XX   -0.000286  -0.004228  -0.010355   0.012969   0.004023
   11  N  1 YY    0.002154   0.001145   0.007330  -0.005347  -0.004975
   12  N  1 ZZ   -0.001868   0.003084   0.003025  -0.007622   0.000952
   13  N  1 XY    0.002390  -0.008841  -0.031625  -0.015153  -0.020821
   14  N  1 XZ   -0.009576  -0.020791   0.002058  -0.000745   0.001194
   15  N  1 YZ   -0.004883   0.002669   0.009962  -0.006293   0.001534
   16  N  2  S    0.052487  -0.029427   0.098509   0.055348   0.094404
   17  N  2  S   -0.094761   0.059691  -0.193897  -0.011893  -0.225355
   18  N  2  S   -0.168642   0.229951  -0.041082  -0.060557  -0.251410
   19  N  2  X    0.080987  -0.154388  -0.208904   0.171790  -0.029553
   20  N  2  Y    0.151621  -0.162486   0.034122  -0.268710   0.323242
   21  N  2  Z    0.323942   0.327972  -0.142083   0.000648   0.061631
   22  N  2  X   -0.070960   0.047696  -0.054753  -0.084295   0.030404
   23  N  2  Y    0.015910   0.018868   0.054799  -0.069729   0.081334
   24  N  2  Z    0.060688   0.050923  -0.008755   0.001039   0.002759
   25  N  2 XX   -0.019904   0.026688  -0.003588   0.020800  -0.028734
   26  N  2 YY    0.028942  -0.029750   0.004273  -0.035378   0.043005
   27  N  2 ZZ   -0.009038   0.003061  -0.000686   0.014578  -0.014270
   28  N  2 XY    0.015690  -0.021723  -0.014159   0.022290  -0.014069
   29  N  2 XZ   -0.001806  -0.003655   0.006281  -0.001558  -0.018091
   30  N  2 YZ    0.034005   0.035835  -0.015942   0.002188   0.003764
   31  O  3  S    0.012492  -0.012848  -0.034733  -0.095468  -0.093146
   32  O  3  S   -0.019969   0.021859   0.045179   0.265726   0.160135
   33  O  3  S    0.012741  -0.032260   0.054265   0.404877   0.286325
   34  O  3  X    0.120230  -0.186685  -0.020763  -0.388854   0.168755
   35  O  3  Y    0.165542  -0.139574   0.021998   0.407143   0.217371
   36  O  3  Z    0.284844   0.317692  -0.141622  -0.054539   0.163262
   37  O  3  X    0.065720  -0.073801   0.025169  -0.132618   0.050214
   38  O  3  Y    0.058796  -0.043743   0.029957   0.175940   0.104419
   39  O  3  Z    0.077931   0.085836  -0.057550  -0.019176   0.076291
   40  O  3 XX    0.015453  -0.019210   0.007126  -0.014586   0.017002
   41  O  3 YY   -0.017381   0.014118   0.001521  -0.017127  -0.015049
   42  O  3 ZZ    0.001928   0.005092  -0.008647   0.031713  -0.001953
   43  O  3 XY    0.006832   0.000880   0.003248   0.045039  -0.011054
   44  O  3 XZ    0.026558   0.022232  -0.010733  -0.004117   0.005992
   45  O  3 YZ   -0.017434  -0.022546   0.009508   0.007893  -0.010071
   46  H  4  S    0.143712   0.087479   0.425070   0.014741  -0.279112
   47  H  4  S    0.064914  -0.029732   0.076441   0.078162  -0.109146
   48  H  4  X   -0.012271   0.008115   0.004988   0.004415  -0.000739
   49  H  4  Y   -0.007357  -0.010685  -0.025136  -0.000536   0.013177
   50  H  4  Z    0.003691   0.000128  -0.013212   0.001231  -0.002660
   51  H  5  S   -0.314314   0.301819   0.075970  -0.128104   0.371908
   52  H  5  S   -0.102947   0.091355  -0.011103  -0.032943   0.137757
   53  H  5  X    0.024614  -0.019416   0.000216  -0.005386  -0.017196
   54  H  5  Y   -0.011055   0.008173   0.011828  -0.011751   0.024264
   55  H  5  Z   -0.006393   0.012480  -0.000546  -0.009345   0.003781

                     11         12         13         14         15
                   -0.2629    -0.0478     0.0788     0.1001     0.1209
                     A          A          A          A          A   
    1  N  1  S   -0.001065   0.093728   0.049975   0.019587  -0.004942
    2  N  1  S   -0.008097  -0.212389  -0.009565   0.024407   0.004898
    3  N  1  S   -0.113348  -0.327130  -0.904929  -0.321818  -0.051282
    4  N  1  X    0.171695   0.244657  -0.153111  -0.158408  -0.004236
    5  N  1  Y   -0.223693   0.037014  -0.140106   0.106287  -0.038716
    6  N  1  Z    0.526214   0.024701   0.003725   0.010532  -0.168217
    7  N  1  X    0.138110  -0.036699  -0.205319  -0.458384   0.126320
    8  N  1  Y   -0.107609  -0.018125  -0.420743   0.441221  -0.132563
    9  N  1  Z    0.419113   0.058560   0.000797   0.026350  -0.600766
   10  N  1 XX   -0.000084  -0.013492  -0.008293   0.008628  -0.001890
   11  N  1 YY   -0.002831   0.021204  -0.008192  -0.019780  -0.006376
   12  N  1 ZZ    0.002915  -0.007712   0.016485   0.011152   0.008265
   13  N  1 XY   -0.000934  -0.013568   0.024283   0.000092  -0.009819
   14  N  1 XZ   -0.013979   0.003488   0.012094  -0.008337  -0.022748
   15  N  1 YZ   -0.004617  -0.002228   0.004685  -0.023700  -0.039081
   16  N  2  S    0.025864  -0.044636   0.016177   0.034102  -0.009395
   17  N  2  S   -0.080464   0.085230  -0.030379  -0.052102   0.029633
   18  N  2  S   -0.062932   0.058105  -0.625373  -0.294789   0.233321
   19  N  2  X   -0.004149  -0.171377   0.050943   0.046574   0.005982
   20  N  2  Y    0.173350  -0.263603   0.132446   0.119578   0.012951
   21  N  2  Z   -0.020434   0.028598  -0.145547   0.211771   0.470323
   22  N  2  X    0.038420  -0.241529   0.037914  -0.023131  -0.003898
   23  N  2  Y    0.122867  -0.473473   0.258002   0.180742   0.158238
   24  N  2  Z    0.007754   0.045709  -0.238232   0.342660   1.131626
   25  N  2 XX   -0.001117  -0.060830   0.006850   0.002184   0.004801
   26  N  2 YY    0.009002   0.038827  -0.009925  -0.003220  -0.011737
   27  N  2 ZZ   -0.007885   0.022003   0.003075   0.001036   0.006936
   28  N  2 XY   -0.014004  -0.022181  -0.006134   0.002070   0.008502
   29  N  2 XZ    0.056356   0.006567  -0.008570   0.007930   0.022199
   30  N  2 YZ   -0.008504  -0.001549   0.008378  -0.005556  -0.035816
   31  O  3  S   -0.045822   0.003238   0.018816   0.002221   0.015530
   32  O  3  S    0.080759  -0.029577  -0.043700   0.017254  -0.028379
   33  O  3  S    0.122546   0.102111  -0.197372  -0.197471  -0.196121
   34  O  3  X    0.068418   0.436645  -0.093212  -0.105744  -0.002876
   35  O  3  Y    0.010097   0.298084  -0.166456  -0.050576  -0.057794
   36  O  3  Z   -0.307385  -0.044191   0.093818  -0.106867  -0.357818
   37  O  3  X    0.011438   0.511435  -0.136095  -0.250390   0.000662
   38  O  3  Y    0.019276   0.338149  -0.274605  -0.123054  -0.080296
   39  O  3  Z   -0.215316  -0.049967   0.202486  -0.291595  -0.842698
   40  O  3 XX    0.004845  -0.004491  -0.005865   0.006193  -0.002964
   41  O  3 YY   -0.002783   0.002233   0.005819  -0.011115  -0.001030
   42  O  3 ZZ   -0.002061   0.002259   0.000046   0.004922   0.003994
   43  O  3 XY   -0.015229   0.003762  -0.009447   0.001786   0.000632
   44  O  3 XZ    0.002186   0.001128  -0.002251   0.002832  -0.001079
   45  O  3 YZ    0.012043   0.001038   0.010270  -0.015373  -0.035006
   46  H  4  S   -0.061554  -0.096009  -0.025670  -0.057719  -0.097218
   47  H  4  S   -0.050619   0.234343   1.907682  -1.622438   1.019977
   48  H  4  X    0.005733   0.005749   0.000783   0.003000   0.012507
   49  H  4  Y   -0.009041   0.012633   0.024857  -0.022401   0.010727
   50  H  4  Z    0.027354   0.004985   0.014062  -0.012085  -0.014561
   51  H  5  S    0.091008   0.027180  -0.060244  -0.073283   0.004050
   52  H  5  S    0.032980   0.438858   0.082915   2.642025  -0.947513
   53  H  5  X    0.006715   0.017147   0.005575   0.025679  -0.007386
   54  H  5  Y   -0.005092   0.013489  -0.008534  -0.026551   0.017822
   55  H  5  Z    0.035901   0.002215  -0.000882  -0.016640   0.000863

                     16         17         18         19         20
                    0.3096     0.3715     0.4078     0.4258     0.5522
                     A          A          A          A          A   
    1  N  1  S   -0.052594   0.017223   0.017303  -0.000923   0.020641
    2  N  1  S   -0.011380  -0.070550   0.090012  -0.119213   0.017124
    3  N  1  S    3.947396  -2.786737  -0.288510  -1.541271  -1.468705
    4  N  1  X    0.008378   0.136022  -0.107263   0.066552   0.083287
    5  N  1  Y   -0.038240  -0.019883   0.055173   0.152994   0.065919
    6  N  1  Z   -0.012521   0.201964  -0.173391  -0.186633   0.262047
    7  N  1  X   -2.199411   1.627533   1.480885   0.081706   0.650346
    8  N  1  Y   -1.286092   0.543245   0.253292  -0.291214   0.568682
    9  N  1  Z    0.171361  -0.039099   0.106795   0.064329  -0.793724
   10  N  1 XX    0.017809   0.017450   0.069304  -0.053900   0.046002
   11  N  1 YY   -0.010851  -0.036589  -0.040246   0.027488  -0.016103
   12  N  1 ZZ   -0.006959   0.019139  -0.029057   0.026412  -0.029899
   13  N  1 XY   -0.053715   0.000520   0.020406  -0.022641   0.021252
   14  N  1 XZ   -0.009450  -0.029499   0.043041   0.052141   0.000340
   15  N  1 YZ    0.018842  -0.008000  -0.007858   0.021224  -0.007380
   16  N  2  S    0.090496  -0.043952  -0.011861  -0.017121  -0.009972
   17  N  2  S   -0.101621   0.062247   0.099927  -0.150116   0.341707
   18  N  2  S   -2.668199   7.394040   2.064641   2.656259   3.702559
   19  N  2  X   -0.104350   0.013744   0.271481  -0.183310  -0.021001
   20  N  2  Y    0.184613  -0.094381   0.097924  -0.226105   0.249936
   21  N  2  Z   -0.028656   0.173082  -0.322860  -0.371917  -0.214758
   22  N  2  X   -2.814086  -0.092572  -0.872767   0.534897   1.234226
   23  N  2  Y   -0.445908   2.908108   0.335165   1.843081   0.162952
   24  N  2  Z    0.026026  -0.649662   0.446799   0.605096   0.485609
   25  N  2 XX   -0.014506  -0.008492  -0.031436  -0.009124  -0.004253
   26  N  2 YY   -0.002810  -0.020918   0.023363  -0.017456  -0.000227
   27  N  2 ZZ    0.017316   0.029410   0.008074   0.026580   0.004479
   28  N  2 XY    0.017942   0.010019   0.014766   0.011406  -0.030517
   29  N  2 XZ    0.002473   0.014838  -0.021172  -0.015992   0.023914
   30  N  2 YZ   -0.001817   0.024775  -0.019765  -0.022470  -0.001099
   31  O  3  S    0.077921   0.079753   0.018445   0.026980   0.028317
   32  O  3  S   -0.065761   0.013220  -0.007980  -0.004993   0.054454
   33  O  3  S   -1.888507  -4.361079  -0.810286  -1.677012  -1.585577
   34  O  3  X    0.128041   0.129665   0.104423  -0.057119   0.205177
   35  O  3  Y   -0.060987   0.060078   0.165924  -0.054987  -0.225823
   36  O  3  Z   -0.023636   0.089960  -0.069943  -0.132179  -0.041637
   37  O  3  X   -0.157724  -0.672755   0.082379  -0.219920  -1.479821
   38  O  3  Y    0.530736   0.734882   0.191767   0.108230   1.147492
   39  O  3  Z   -0.024283  -0.016515   0.062122   0.095804   0.070929
   40  O  3 XX    0.000700  -0.026443   0.039840  -0.040856   0.010735
   41  O  3 YY   -0.012328  -0.017297  -0.027369   0.016675  -0.019715
   42  O  3 ZZ    0.011628   0.043741  -0.012471   0.024181   0.008980
   43  O  3 XY    0.026222   0.000702   0.002715  -0.008974  -0.003642
   44  O  3 XZ    0.000689   0.021832  -0.039128  -0.042941  -0.024164
   45  O  3 YZ    0.003794  -0.008147   0.026011   0.030081   0.011186
   46  H  4  S   -0.009404  -0.100458  -0.146401   0.035924   0.220166
   47  H  4  S    0.224030  -0.811283  -0.337368  -0.522712  -0.251893
   48  H  4  X    0.001128   0.030380  -0.005338   0.014025   0.016598
   49  H  4  Y   -0.004598  -0.025950  -0.012669   0.016864  -0.015205
   50  H  4  Z    0.001832   0.017619  -0.018483  -0.001311   0.005885
   51  H  5  S    0.085761  -0.077883  -0.131425   0.013199  -0.149726
   52  H  5  S    0.344321   0.125858  -0.228359   0.585130  -0.366978
   53  H  5  X   -0.001000   0.015366  -0.025303   0.028500  -0.005007
   54  H  5  Y    0.010375   0.005289   0.017612   0.044600  -0.023019
   55  H  5  Z   -0.004552   0.018451  -0.030154  -0.037060   0.035313

                     21         22         23         24         25
                    0.5830     0.6826     0.7040     0.7899     0.8888
                     A          A          A          A          A   
    1  N  1  S    0.012284   0.018193   0.008180  -0.012495   0.027069
    2  N  1  S   -0.036553  -0.242256  -0.148403  -0.270446  -0.707438
    3  N  1  S   -1.227602  -0.518263   1.190993   2.727834   3.060654
    4  N  1  X   -0.010272   0.436898   0.090651  -0.083244  -0.243209
    5  N  1  Y    0.276664  -0.209551   0.473690  -0.077508  -0.121041
    6  N  1  Z   -0.568959  -0.071448   0.224466   0.182110  -0.069072
    7  N  1  X    0.642543  -1.301922   0.155862  -0.045616   0.809059
    8  N  1  Y    0.027618   2.125743  -2.188336  -0.229110   0.499980
    9  N  1  Z    1.103866   0.418580  -0.938455  -0.402556   0.207845
   10  N  1 XX    0.037460  -0.009835   0.035038  -0.056387  -0.059349
   11  N  1 YY   -0.017779   0.008802  -0.036506   0.005292  -0.033111
   12  N  1 ZZ   -0.019681   0.001033   0.001468   0.051095   0.092460
   13  N  1 XY   -0.010218   0.068928  -0.034280  -0.061126  -0.112371
   14  N  1 XZ    0.022912   0.012687  -0.027880   0.071845  -0.032662
   15  N  1 YZ   -0.020831   0.009955   0.002276   0.011169   0.002901
   16  N  2  S   -0.008906  -0.001503   0.000268   0.030901   0.057141
   17  N  2  S    0.064368  -0.416987  -0.399557  -0.163892  -0.605914
   18  N  2  S    2.820990   0.506440  -1.891688  -0.925656   1.666187
   19  N  2  X   -0.013314   0.211425   0.136529  -0.115463  -0.201632
   20  N  2  Y    0.142876   0.225320   0.102796   0.002291   0.203945
   21  N  2  Z    0.250092  -0.100305   0.048045  -0.384884   0.160785
   22  N  2  X    0.864428   1.805037  -0.003930  -0.566948  -0.013282
   23  N  2  Y    0.586414  -0.070327   0.079633  -0.342447  -0.318080
   24  N  2  Z   -0.611376   0.016624   0.097415   1.305050  -0.857722
   25  N  2 XX   -0.047016  -0.103420  -0.130135   0.047973   0.054961
   26  N  2 YY    0.020792   0.019006   0.068881  -0.028723  -0.101719
   27  N  2 ZZ    0.026224   0.084414   0.061254  -0.019250   0.046758
   28  N  2 XY   -0.003146  -0.060798  -0.010561   0.004166   0.035348
   29  N  2 XZ   -0.076218  -0.006404   0.020781  -0.129133   0.078869
   30  N  2 YZ   -0.002382   0.007105  -0.002577   0.127507  -0.077906
   31  O  3  S    0.024282  -0.025180  -0.030233   0.002808   0.017077
   32  O  3  S    0.019926   0.125735   0.058501   0.018110   0.028031
   33  O  3  S   -1.161547   0.127050   1.042127   0.038148  -0.607145
   34  O  3  X    0.095582   0.111300   0.059079  -0.079282  -0.157298
   35  O  3  Y   -0.069968   0.173715   0.234625  -0.015201  -0.139794
   36  O  3  Z    0.157097   0.019222  -0.011174   0.673331  -0.302884
   37  O  3  X   -0.883231  -1.109882   0.167211   0.238177   0.041323
   38  O  3  Y    0.470805  -1.199800  -1.036131   0.144168   0.598553
   39  O  3  Z   -0.419780   0.054941   0.122192  -1.355903   0.847171
   40  O  3 XX    0.005176  -0.037744  -0.001065  -0.007164  -0.007161
   41  O  3 YY   -0.016586  -0.024027  -0.022690   0.011130  -0.024158
   42  O  3 ZZ    0.011410   0.061771   0.023754  -0.003966   0.031319
   43  O  3 XY   -0.002676  -0.048436  -0.024360  -0.007586  -0.006357
   44  O  3 XZ    0.016778  -0.011363  -0.002581  -0.109935   0.028464
   45  O  3 YZ   -0.008985   0.015526  -0.013462   0.064440  -0.041169
   46  H  4  S    0.031223  -0.403108   0.138002  -0.424346  -0.691431
   47  H  4  S   -0.095071  -1.365443   2.512620  -0.123579  -0.890696
   48  H  4  X    0.020455   0.104981   0.060221   0.037647   0.029449
   49  H  4  Y    0.000150  -0.018840  -0.047719  -0.010311   0.016370
   50  H  4  Z   -0.066400   0.014896  -0.000461  -0.021015   0.010984
   51  H  5  S   -0.092589   0.107168  -0.518901  -0.523253  -0.652418
   52  H  5  S   -0.265136   1.562763  -2.348258  -0.671624  -1.239195
   53  H  5  X   -0.016799   0.024250   0.032174   0.006004   0.008059
   54  H  5  Y    0.033824   0.027230   0.069059   0.024462   0.007090
   55  H  5  Z   -0.095484  -0.005335   0.017174   0.071945  -0.028561

                     26         27         28         29         30
                    0.9362     1.0952     1.1818     1.3351     1.4384
                     A          A          A          A          A   
    1  N  1  S   -0.037948   0.140491  -0.051510  -0.080324  -0.002967
    2  N  1  S    0.448321  -0.330834   0.545165   0.557306  -0.016309
    3  N  1  S   -4.299879  -2.754680  -6.885975  -3.472279   2.278868
    4  N  1  X    0.213971  -0.069374  -0.251868  -0.105331  -0.113657
    5  N  1  Y    0.200805  -0.083686  -0.076560  -0.172090  -0.043710
    6  N  1  Z    0.007819  -0.013106   0.045470   0.072327   0.012795
    7  N  1  X    1.425742   1.645885   2.024218   1.352366  -0.730971
    8  N  1  Y    0.200842  -0.383378   2.021244   0.160541  -0.692769
    9  N  1  Z   -0.022665  -0.424213  -0.065873  -0.123905  -0.176232
   10  N  1 XX    0.040294   0.041332  -0.001889  -0.075222  -0.053054
   11  N  1 YY   -0.135756   0.133221  -0.101685   0.006485  -0.153929
   12  N  1 ZZ    0.095462  -0.174554   0.103574   0.068737   0.206983
   13  N  1 XY    0.064027   0.009757  -0.203488  -0.150066   0.146985
   14  N  1 XZ   -0.003582  -0.068197  -0.099336   0.290746  -0.085032
   15  N  1 YZ   -0.018354   0.170262   0.050174  -0.043888   0.289938
   16  N  2  S    0.002102   0.015403   0.056585   0.036533  -0.045615
   17  N  2  S   -0.500269  -0.614406  -0.764872  -0.412330   0.506501
   18  N  2  S    4.840023   4.073819   7.492994   4.098035  -2.022257
   19  N  2  X    0.250262   0.113375  -0.407056  -0.302285  -0.158618
   20  N  2  Y    0.402141   0.209561   0.111347   0.086673   0.029726
   21  N  2  Z   -0.044164  -0.009813  -0.132699   0.189828   0.000019
   22  N  2  X    0.026829   0.156442   3.288872   0.860621  -1.219434
   23  N  2  Y    0.512920   1.099217   1.296597   1.008162  -0.450494
   24  N  2  Z   -0.028883   0.461674   0.200096  -0.350707   0.345894
   25  N  2 XX    0.111931   0.028784   0.004078   0.146318  -0.071234
   26  N  2 YY   -0.213536  -0.054959   0.069298  -0.096243  -0.071420
   27  N  2 ZZ    0.101605   0.026176  -0.073376  -0.050075   0.142654
   28  N  2 XY   -0.029222  -0.176754   0.254413   0.071734   0.133160
   29  N  2 XZ    0.002281  -0.089637   0.035844  -0.236231  -0.123930
   30  N  2 YZ    0.030429   0.042754   0.127391  -0.271618   0.079467
   31  O  3  S    0.004010  -0.020196   0.050530   0.002570   0.006828
   32  O  3  S    0.047123  -0.075830  -0.083498   0.086595   0.492088
   33  O  3  S   -1.197816  -0.913350  -0.771262  -1.120144  -0.926653
   34  O  3  X   -0.465828   0.010066   0.085950   0.144439  -0.095982
   35  O  3  Y   -0.256100  -0.036700   0.206453   0.233441   0.200909
   36  O  3  Z    0.035966   0.033862   0.036494  -0.075044  -0.069277
   37  O  3  X    1.105915   0.330151  -0.978810  -0.172932   0.031455
   38  O  3  Y    0.976988   0.151814  -0.278760   0.135637   0.361112
   39  O  3  Z   -0.085122  -0.454904  -0.262466   0.247920  -0.254811
   40  O  3 XX    0.063700   0.001644   0.036082  -0.039207  -0.085467
   41  O  3 YY   -0.145483  -0.069072   0.014295   0.011796   0.103371
   42  O  3 ZZ    0.081783   0.067428  -0.050376   0.027411  -0.017904
   43  O  3 XY   -0.094884   0.006942   0.056210  -0.046595  -0.203353
   44  O  3 XZ   -0.001482   0.049389   0.080288  -0.204458   0.098902
   45  O  3 YZ    0.019820   0.025504   0.083740  -0.207965  -0.010999
   46  H  4  S    0.136385   1.120654   0.034823   0.484783   0.120666
   47  H  4  S    0.184565   0.072910  -0.269192   0.137855   0.180385
   48  H  4  X    0.093716  -0.052121  -0.187617   0.228216   0.180382
   49  H  4  Y   -0.087517   0.297593  -0.153316   0.003409  -0.055735
   50  H  4  Z   -0.045859   0.112212   0.042103   0.000826   0.345784
   51  H  5  S    0.277533   0.225968   0.650282  -0.275096  -0.159206
   52  H  5  S    0.017474  -0.757386   0.092812  -0.072220  -0.061791
   53  H  5  X    0.032287  -0.072743   0.040102  -0.218400  -0.087094
   54  H  5  Y    0.060890  -0.218788  -0.070496  -0.041514   0.062541
   55  H  5  Z    0.042198  -0.045180  -0.084929   0.081411  -0.243357

                     31         32         33         34         35
                    1.5974     1.7844     1.8577     2.0895     2.1389
                     A          A          A          A          A   
    1  N  1  S   -0.080366  -0.061536  -0.048984  -0.058127   0.008749
    2  N  1  S    0.335189   0.023649   0.112627  -0.271040   0.359138
    3  N  1  S   -0.705079  -0.970128   1.569156   1.347436   1.151956
    4  N  1  X   -0.095203   0.164358   0.031040   0.193591  -0.246276
    5  N  1  Y   -0.068945   0.110790  -0.043293   0.055990   0.123714
    6  N  1  Z   -0.108912  -0.003352  -0.001135  -0.015857   0.009062
    7  N  1  X    0.850817   0.827165  -0.192243  -0.248553  -0.474052
    8  N  1  Y   -0.680805   0.300840  -0.378064  -0.021334   0.733097
    9  N  1  Z   -0.159579  -0.000128  -0.213681  -0.059316   0.345336
   10  N  1 XX   -0.255874   0.006892  -0.124700   0.227291  -0.208750
   11  N  1 YY    0.198632   0.038884  -0.060767  -0.069923   0.005515
   12  N  1 ZZ    0.057242  -0.045777   0.185467  -0.157368   0.203235
   13  N  1 XY    0.080505  -0.000561   0.158413   0.080910  -0.162729
   14  N  1 XZ   -0.218811   0.035132  -0.024722   0.018080  -0.044139
   15  N  1 YZ   -0.184658   0.098055   0.032064   0.278967  -0.066154
   16  N  2  S    0.019008   0.072325   0.043253  -0.030270   0.035410
   17  N  2  S   -0.223013  -0.372907  -0.271712  -0.023968   0.485298
   18  N  2  S    2.512935   3.301537  -7.016767  -0.517339  -1.113349
   19  N  2  X   -0.207002   0.206005   0.163410  -0.089207  -0.070465
   20  N  2  Y    0.103153  -0.147935  -0.199032   0.081477  -0.244238
   21  N  2  Z   -0.098101   0.024565   0.019099  -0.096740  -0.075002
   22  N  2  X   -0.710502  -0.126761   0.703079  -0.021611  -0.819879
   23  N  2  Y    0.948221   0.974115  -2.381898  -0.047528  -0.519318
   24  N  2  Z    0.052143  -0.026395   0.269650   0.143622  -0.070656
   25  N  2 XX    0.182521   0.238058   0.009878   0.041329  -0.271620
   26  N  2 YY   -0.065881   0.316183  -0.183300  -0.109040   0.142560
   27  N  2 ZZ   -0.116640  -0.554241   0.173422   0.067710   0.129061
   28  N  2 XY   -0.100667  -0.419399   0.015967   0.060875  -0.356333
   29  N  2 XZ    0.262659  -0.100342  -0.027125  -0.371521  -0.168071
   30  N  2 YZ    0.157213  -0.008894   0.100319   0.546519   0.201359
   31  O  3  S   -0.052755  -0.118922   0.048557   0.037196  -0.049600
   32  O  3  S    0.431994   0.243873  -1.437180  -0.057723   0.302250
   33  O  3  S   -2.180443  -1.870475   7.416524  -0.039536  -0.676422
   34  O  3  X    0.154062   0.095751   0.477639  -0.065036  -0.018618
   35  O  3  Y    0.241790  -0.248447  -0.257954   0.068318  -0.046459
   36  O  3  Z    0.021896  -0.090816  -0.028749  -0.474786  -0.179957
   37  O  3  X    0.063761  -0.023109   0.982939  -0.072638  -0.149824
   38  O  3  Y    0.406340   0.401975  -1.007071  -0.070323   0.225021
   39  O  3  Z   -0.035743  -0.038975   0.041649   0.106431   0.042215
   40  O  3 XX   -0.131966   0.069422  -0.232131   0.067817  -0.078655
   41  O  3 YY    0.125302  -0.053491  -0.094378   0.157836  -0.403088
   42  O  3 ZZ    0.006663  -0.015931   0.326510  -0.225653   0.481744
   43  O  3 XY   -0.083987   0.288174   0.111489   0.099036  -0.345452
   44  O  3 XZ    0.152290   0.049019   0.068723   0.328267  -0.017230
   45  O  3 YZ    0.179693  -0.032271   0.054460  -0.238130  -0.125677
   46  H  4  S    0.262109  -0.345016   0.031674  -0.336836  -0.430400
   47  H  4  S    0.286855  -0.249122   0.561550  -0.108796  -0.488470
   48  H  4  X    0.156977  -0.094117  -0.001579  -0.021876  -0.129499
   49  H  4  Y    0.064795  -0.298943  -0.098646  -0.036087  -0.225515
   50  H  4  Z   -0.219164   0.254717   0.069462  -0.398655  -0.143819
   51  H  5  S   -0.513481  -0.276992  -0.210794  -0.419809   0.363661
   52  H  5  S   -0.325021  -0.022955  -0.485666  -0.067701   0.603530
   53  H  5  X   -0.292828  -0.213493  -0.199056  -0.169727  -0.047523
   54  H  5  Y    0.017025   0.086205   0.036804  -0.137821  -0.414381
   55  H  5  Z    0.025045  -0.189551  -0.020390   0.313244   0.073559

                     36         37         38         39         40
                    2.2256     2.3276     2.4151     2.6269     2.7221
                     A          A          A          A          A   
    1  N  1  S    0.042250   0.003302   0.015225   0.045810  -0.006097
    2  N  1  S   -0.080990   0.223813  -0.009276  -0.183308  -0.148062
    3  N  1  S   -0.557801  -0.957441   0.356238  -1.144754  -0.128890
    4  N  1  X   -0.201233   0.354747   0.059045   0.537116   0.077984
    5  N  1  Y    0.087531  -0.093361   0.337129   0.087559   0.371353
    6  N  1  Z    0.296430   0.223498   0.105743   0.065160  -0.860768
    7  N  1  X   -0.544978   1.087197  -0.365251   0.778419   0.161583
    8  N  1  Y    0.846703  -0.340362   1.346332  -0.369473   0.265561
    9  N  1  Z    0.649127  -0.046066   0.423292  -0.118540  -0.319519
   10  N  1 XX    0.088353  -0.356072   0.190666  -0.111341  -0.188394
   11  N  1 YY    0.110972   0.069312  -0.025243  -0.187559   0.443866
   12  N  1 ZZ   -0.199325   0.286760  -0.165422   0.298901  -0.255473
   13  N  1 XY    0.090011  -0.003353   0.028960  -0.245681   0.007051
   14  N  1 XZ   -0.376459  -0.117147   0.092669   0.209000  -0.104609
   15  N  1 YZ   -0.150427  -0.102309   0.161273  -0.073572  -0.364808
   16  N  2  S   -0.006401  -0.008103  -0.010421  -0.024169  -0.124278
   17  N  2  S   -0.254012   0.248773   0.174719   0.199338  -0.285448
   18  N  2  S    0.455290   0.766309  -0.072574   0.062636  -0.688089
   19  N  2  X    0.007962   0.155636   0.044847   0.210387   0.103294
   20  N  2  Y    0.023342   0.139098   0.016491  -0.047248   0.209315
   21  N  2  Z   -0.207266  -0.111577   0.189934   0.112461  -0.051910
   22  N  2  X    0.563632  -0.103026   0.161744  -0.334802   0.386206
   23  N  2  Y    0.034290  -0.009937  -0.431390   0.105947  -0.234493
   24  N  2  Z   -0.263717  -0.090740  -0.142734   0.211049   0.185089
   25  N  2 XX    0.215258  -0.133596   0.018777  -0.148672   0.105001
   26  N  2 YY   -0.093228  -0.320753  -0.488918   0.169387  -0.001854
   27  N  2 ZZ   -0.122030   0.454349   0.470141  -0.020715  -0.103147
   28  N  2 XY    0.029912  -0.245005  -0.353042   0.147169  -0.103919
   29  N  2 XZ   -0.089766  -0.097490  -0.047820   0.373178   0.287512
   30  N  2 YZ    0.146798   0.013431  -0.282658   0.323886   0.217874
   31  O  3  S    0.007049  -0.009728   0.003570   0.011614  -0.017141
   32  O  3  S   -0.045470   0.065738   0.023598  -0.396638  -0.619868
   33  O  3  S   -0.042791   0.177838  -0.137315   1.193086   1.737401
   34  O  3  X    0.087437   0.136528   0.090252  -0.103264   0.022400
   35  O  3  Y    0.038990   0.092634   0.136390  -0.191631   0.044896
   36  O  3  Z   -0.046417   0.015352   0.089333  -0.008174   0.016004
   37  O  3  X   -0.263409   0.171144  -0.301706   0.935997   0.381864
   38  O  3  Y   -0.176403   0.128880  -0.034318   0.170230  -0.560536
   39  O  3  Z   -0.003988  -0.040853  -0.021136  -0.094330   0.032053
   40  O  3 XX   -0.195041   0.281848   0.013872   0.634009   0.028514
   41  O  3 YY    0.137835   0.128126   0.318556  -0.248901   0.235243
   42  O  3 ZZ    0.057206  -0.409974  -0.332428  -0.385108  -0.263756
   43  O  3 XY    0.048637   0.111612   0.130325   0.041271  -0.354595
   44  O  3 XZ   -0.501013  -0.197362   0.048895  -0.250941  -0.125263
   45  O  3 YZ   -0.445747  -0.272382   0.348939  -0.097716  -0.256895
   46  H  4  S   -0.345593   0.259345  -0.635948   0.410044  -0.233206
   47  H  4  S   -0.520876   0.394270  -0.724537   0.128508   0.044654
   48  H  4  X    0.340396  -0.778256  -0.067125   0.456291  -0.027909
   49  H  4  Y   -0.173868   0.189827  -0.542073   0.025880  -0.382464
   50  H  4  Z   -0.187581  -0.026521  -0.201403  -0.136538   1.062396
   51  H  5  S    0.560650  -0.236572   0.380429  -0.045785   0.001080
   52  H  5  S    0.626829  -0.495079   0.673282  -0.126254  -0.117863
   53  H  5  X    0.235511  -0.173086  -0.163252  -0.554564   0.065209
   54  H  5  Y   -0.188635   0.396161  -0.710217  -0.463696  -0.157635
   55  H  5  Z   -0.472290  -0.129953  -0.201762  -0.364198   0.545444

                     41         42         43         44         45
                    2.7640     2.9071     3.0731     3.2600     3.4141
                     A          A          A          A          A   
    1  N  1  S   -0.083548  -0.174477  -0.010329  -0.000129  -0.018661
    2  N  1  S   -0.580333  -0.044740  -0.107356  -0.107108  -0.806209
    3  N  1  S    1.926420   5.100442   0.147523  -0.665404  -1.027775
    4  N  1  X    0.530364  -0.126989   0.129834   0.188051   1.205776
    5  N  1  Y    0.013421  -0.239644  -0.087330   0.341702   0.600969
    6  N  1  Z    0.249253  -0.144517   0.250588  -0.571662   0.102298
    7  N  1  X   -0.085009  -0.679577  -0.178052   0.333561   0.537656
    8  N  1  Y   -0.229628  -1.097921   0.449364  -0.037747   0.578110
    9  N  1  Z    0.240715  -0.262038   0.057875  -0.162266   0.011559
   10  N  1 XX   -0.200186   0.817516  -0.112523  -0.202406   0.348713
   11  N  1 YY    0.379022   0.077998   0.276295  -0.779854  -0.171716
   12  N  1 ZZ   -0.178836  -0.895514  -0.163772   0.982260  -0.176996
   13  N  1 XY    0.320215  -0.287169   0.018516   0.309401  -0.007100
   14  N  1 XZ   -0.678076  -0.265981   0.981084  -0.726266   0.352097
   15  N  1 YZ    0.095135   0.392205   0.619138   0.788712  -0.511039
   16  N  2  S   -0.154265   0.116770  -0.164784   0.024295   0.113639
   17  N  2  S   -0.481351   0.374192  -0.587140   0.167802   1.298890
   18  N  2  S   -2.262139  -2.613706  -0.987038   0.858988   3.646628
   19  N  2  X   -0.121787  -0.593677   0.155480   0.494528   0.559199
   20  N  2  Y    0.142427  -0.283419   0.206517   0.239870   0.560477
   21  N  2  Z   -0.106693   0.255279   0.513059   0.505698  -0.243470
   22  N  2  X   -0.089762  -1.528416   0.667515   0.261053   0.537366
   23  N  2  Y   -0.317161  -0.516120  -0.172063   0.302887   0.751536
   24  N  2  Z   -0.248215   0.230371   0.199748   0.286981  -0.095878
   25  N  2 XX    0.009715  -0.234415   0.237942  -0.110941   0.303332
   26  N  2 YY    0.399410  -0.212270   0.257487   0.368288  -0.083927
   27  N  2 ZZ   -0.409124   0.446685  -0.495430  -0.257347  -0.219405
   28  N  2 XY    0.248015  -0.023005  -0.149129   0.126872   0.867014
   29  N  2 XZ   -0.543162   0.270008   0.609533  -0.277305   0.161915
   30  N  2 YZ   -0.511545   0.229521   0.444588   0.297697  -0.122945
   31  O  3  S   -0.005499   0.053292  -0.053590  -0.014786   0.100873
   32  O  3  S   -0.801759   0.461706  -0.691203   0.205945   0.822285
   33  O  3  S    2.395882  -1.430717   1.941509  -0.368848  -3.284129
   34  O  3  X   -0.134899  -0.166044   0.048961  -0.072827  -0.276803
   35  O  3  Y   -0.107377   0.114954  -0.012086  -0.185212   0.169634
   36  O  3  Z    0.024859  -0.036534  -0.100417  -0.336554   0.163947
   37  O  3  X    0.806395  -0.273131   0.202432  -0.275841  -1.182866
   38  O  3  Y   -0.647303   0.603075  -0.952494  -0.052558   0.720003
   39  O  3  Z    0.041976  -0.195092  -0.053117  -0.407700   0.044745
   40  O  3 XX    0.209165   0.004805  -0.247488  -0.386917  -0.601753
   41  O  3 YY   -0.097330  -0.296356   0.291785   0.388351  -0.049385
   42  O  3 ZZ   -0.111834   0.291551  -0.044297  -0.001434   0.651139
   43  O  3 XY   -0.578253   0.214750  -0.670228   0.122684   0.355407
   44  O  3 XZ    0.082963  -0.475417  -0.317831  -0.651100   0.118972
   45  O  3 YZ    0.212554   0.075361  -0.026058   0.419267  -0.188140
   46  H  4  S   -0.614754  -0.313383  -0.674345   0.232173   0.238284
   47  H  4  S    0.026941   0.171245  -0.040703   0.078536  -0.425839
   48  H  4  X   -0.237656   0.037570  -0.447107  -0.177981  -0.653007
   49  H  4  Y   -0.117508  -0.129983   0.142781   0.310517  -0.085191
   50  H  4  Z   -0.144965   0.083240  -0.412880  -0.579279   0.270368
   51  H  5  S   -0.432451  -1.423789   0.189507  -0.118770   0.037580
   52  H  5  S   -0.305424  -0.588954   0.046863  -0.112943   0.021167
   53  H  5  X   -0.254081  -0.756252   0.213941   0.072917  -0.642246
   54  H  5  Y   -0.017263   0.276738   0.499582  -0.617372  -0.583184
   55  H  5  Z    0.153948   0.058826  -0.526665   1.434274  -0.562467

                     46         47         48         49         50
                    3.4583     3.5452     3.8623     3.9977     5.5753
                     A          A          A          A          A   
    1  N  1  S    0.052884  -0.018966  -0.058239  -0.050582   0.024457
    2  N  1  S   -0.316346  -0.094377  -0.514876  -0.428210  -0.288579
    3  N  1  S   -0.848682   0.620547   2.155696   3.315345  -0.066931
    4  N  1  X    0.201208  -0.088881   0.349718  -0.066526   0.055404
    5  N  1  Y    0.033245  -0.066445   0.604579  -0.797971  -0.421087
    6  N  1  Z   -0.254110  -0.440624   0.037893  -0.106600  -0.217900
    7  N  1  X    0.012006  -0.179301   0.283069  -0.827530   0.072825
    8  N  1  Y    0.693545   0.203959  -0.526442  -0.041613  -0.375493
    9  N  1  Z    0.161963   0.090494  -0.143585   0.109113  -0.085535
   10  N  1 XX   -1.040871  -0.373427  -0.116313  -1.774044  -0.074109
   11  N  1 YY    0.808494  -0.106621  -0.130384   1.938287  -0.340137
   12  N  1 ZZ    0.232377   0.480048   0.246697  -0.164243   0.414246
   13  N  1 XY    0.385485   0.618618  -2.117654  -0.812838  -0.235834
   14  N  1 XZ    0.340771  -0.148429  -0.629984   0.096183  -0.140407
   15  N  1 YZ    0.277744   1.005822   0.614571   0.664822   0.100757
   16  N  2  S    0.092292   0.001647   0.007446   0.104866   0.225533
   17  N  2  S    0.612275  -0.202529   0.979670   0.883694   3.127523
   18  N  2  S    1.928762  -0.484841  -0.191340  -2.774943  -0.193235
   19  N  2  X   -0.309968  -0.178305   0.718865   1.014062  -1.343284
   20  N  2  Y   -0.129639  -0.182370  -0.298162   0.806533   1.667299
   21  N  2  Z    0.516988  -0.789406  -0.262218   0.010063  -0.149728
   22  N  2  X    0.308008   0.009899  -0.639272  -0.134790  -0.494234
   23  N  2  Y    0.032795  -0.228709  -0.200981  -0.618410  -0.043374
   24  N  2  Z    0.096642  -0.430945  -0.143607  -0.169926   0.026765
   25  N  2 XX    0.857083   0.008850   1.509694  -0.865790   0.329282
   26  N  2 YY   -0.733899  -0.072857  -1.140470   0.700112   0.294352
   27  N  2 ZZ   -0.123184   0.064007  -0.369224   0.165678  -0.623635
   28  N  2 XY    0.608696   0.128716  -0.015209   0.915936  -1.116424
   29  N  2 XZ   -0.128504   1.087561  -0.031245   0.081906   0.055388
   30  N  2 YZ    0.480869  -0.814097  -0.251624  -0.075017  -0.106521
   31  O  3  S    0.063099  -0.011492   0.014497   0.063975  -0.166051
   32  O  3  S    0.727617   0.104176   0.061453   0.458182  -2.875303
   33  O  3  S   -1.524705   0.255725  -0.313834   0.495514  -0.494252
   34  O  3  X    0.526962   0.149281   0.467579  -0.405651  -1.145412
   35  O  3  Y    0.375275   0.053165   0.340923  -0.525761   1.500653
   36  O  3  Z   -0.329874   0.837774   0.103340   0.057156  -0.109400
   37  O  3  X   -0.203129   0.039975   0.363120  -0.411195  -0.007495
   38  O  3  Y    0.757096   0.020453   0.493771  -0.178932   0.418601
   39  O  3  Z   -0.246044   0.605068   0.193467   0.210324  -0.034023
   40  O  3 XX    0.856541   0.208313   0.374491  -0.564514   0.002997
   41  O  3 YY   -1.012842  -0.299733  -0.516924   0.516766  -0.373939
   42  O  3 ZZ    0.156301   0.091421   0.142433   0.047748   0.370941
   43  O  3 XY    0.133202   0.056491  -0.323476   0.312989   0.624300
   44  O  3 XZ   -0.333455   0.550151   0.201399   0.032182  -0.047518
   45  O  3 YZ    0.404318  -1.008530  -0.036755  -0.092899   0.064168
   46  H  4  S   -0.629470  -0.347330  -0.645627  -1.309571   0.990254
   47  H  4  S   -0.304357  -0.086094  -0.009039   0.052083   0.050264
   48  H  4  X   -0.306926  -0.306994   1.250096   0.546579   0.187873
   49  H  4  Y   -0.180591  -0.017021   0.370375  -0.361657  -0.329202
   50  H  4  Z    0.038676  -0.621580  -0.246764  -0.042041  -0.296461
   51  H  5  S    0.419448   0.061023  -1.692237  -0.882845  -0.402966
   52  H  5  S    0.240055   0.012171  -0.444925  -0.122354   0.056557
   53  H  5  X    0.960402   0.367969  -0.131410   1.081348   0.179422
   54  H  5  Y    0.365905  -0.193037   0.616490   1.472313  -0.047220
   55  H  5  Z    0.156627   0.901037   0.302005   0.063661   0.140745

                     51         52
                    5.7162     8.6455
                     A          A   
    1  N  1  S   -0.092243  -0.796324
    2  N  1  S   -1.833688  -7.233223
    3  N  1  S   -2.140458  -4.987654
    4  N  1  X    0.757551  -1.735759
    5  N  1  Y   -2.169971   0.680941
    6  N  1  Z   -0.888392   0.568678
    7  N  1  X    1.096622  -0.665369
    8  N  1  Y   -1.668911   1.069370
    9  N  1  Z   -0.731437   0.421789
   10  N  1 XX    1.267320  -0.058819
   11  N  1 YY   -1.533026  -0.506355
   12  N  1 ZZ    0.265706   0.565174
   13  N  1 XY   -0.453520   0.610156
   14  N  1 XZ   -0.254291   0.436070
   15  N  1 YZ   -0.700351  -0.629530
   16  N  2  S   -0.084643  -0.013074
   17  N  2  S   -0.533820   0.237156
   18  N  2  S    2.261040   2.132711
   19  N  2  X    0.296386   0.232828
   20  N  2  Y   -0.582389   0.142674
   21  N  2  Z   -0.031589   0.038874
   22  N  2  X   -0.184618   0.754709
   23  N  2  Y    0.864135   0.478877
   24  N  2  Z    0.230149   0.083681
   25  N  2 XX    0.559801   0.171001
   26  N  2 YY   -0.489308  -0.051655
   27  N  2 ZZ   -0.070493  -0.119346
   28  N  2 XY   -0.130046   0.202133
   29  N  2 XZ   -0.197239   0.005405
   30  N  2 YZ    0.043066   0.049160
   31  O  3  S    0.023577   0.011819
   32  O  3  S    0.547096   0.155913
   33  O  3  S   -1.136796  -0.744342
   34  O  3  X    0.315168   0.049980
   35  O  3  Y   -0.074118   0.053590
   36  O  3  Z   -0.042105  -0.001179
   37  O  3  X    0.082144  -0.263351
   38  O  3  Y    0.230498  -0.114739
   39  O  3  Z   -0.179596  -0.216450
   40  O  3 XX    0.046860   0.076058
   41  O  3 YY   -0.062114  -0.090312
   42  O  3 ZZ    0.015254   0.014254
   43  O  3 XY   -0.327368  -0.013903
   44  O  3 XZ   -0.021872  -0.053778
   45  O  3 YZ    0.067794   0.011712
   46  H  4  S    5.537159   2.830599
   47  H  4  S    0.554649  -0.420674
   48  H  4  X    0.004426  -0.221408
   49  H  4  Y   -2.013789  -1.152982
   50  H  4  Z   -0.672793  -0.353111
   51  H  5  S   -2.230094   8.080161
   52  H  5  S   -0.658099   0.750988
   53  H  5  X   -0.051055  -1.926837
   54  H  5  Y   -0.927329   1.273009
   55  H  5  Z   -0.368181   0.818311
 ...... END OF RHF CALCULATION ......
 STEP CPU TIME =     4.12 TOTAL CPU TIME =          4.3 (      0.1 MIN)
 TOTAL WALL CLOCK TIME=          4.4 SECONDS, CPU UTILIZATION IS    98.86%

     ---------------------------------------------------------------------
     PROPERTIES FOR THE PBE      DFT FUNCTIONAL (RHF  TYPE) DENSITY MATRIX
     ---------------------------------------------------------------------

          -----------------
          ENERGY COMPONENTS
          -----------------

         WAVEFUNCTION NORMALIZATION =       1.0000000000

                ONE ELECTRON ENERGY =    -470.4316499686
                TWO ELECTRON ENERGY =     173.0239363377
           NUCLEAR REPULSION ENERGY =     114.9672129547
                                      ------------------
                       TOTAL ENERGY =    -182.4405006762

 ELECTRON-ELECTRON POTENTIAL ENERGY =     173.0239363377
  NUCLEUS-ELECTRON POTENTIAL ENERGY =    -667.5320721042
   NUCLEUS-NUCLEUS POTENTIAL ENERGY =     114.9672129547
                                      ------------------
             TOTAL POTENTIAL ENERGY =    -379.5409228119
               TOTAL KINETIC ENERGY =     197.1004221356
                 VIRIAL RATIO (V/T) =       1.9256220697

          ---------------------------------------
          MULLIKEN AND LOWDIN POPULATION ANALYSES
          ---------------------------------------

     ATOMIC MULLIKEN POPULATION IN EACH MOLECULAR ORBITAL

                      1          2          3          4          5

                  2.000000   2.000000   2.000000   2.000000   2.000000

    1            -0.000850   0.002969   1.983438   0.100610   0.274422
    2             0.004550   1.994486   0.003732   0.963825   0.916867
    3             1.996329   0.001780  -0.000601   0.894467   0.330636
    4            -0.000147  -0.000059   0.003137   0.026372   0.158703
    5             0.000119   0.000824   0.010294   0.014727   0.319372

                      6          7          8          9         10

                  2.000000   2.000000   2.000000   2.000000   2.000000

    1             0.372845   0.293838   0.851468   0.120159   0.540601
    2             0.679984   0.724368   0.359318   0.104766   0.668867
    3             0.558321   0.631253   0.130645   1.723394   0.448080
    4             0.067203   0.022499   0.623166   0.031955   0.173824
    5             0.321648   0.328042   0.035404   0.019727   0.168628

                     11         12

                  2.000000   2.000000

    1             1.471138   0.073190
    2             0.179208   0.531715
    3             0.268093   0.954263
    4             0.034903   0.136304
    5             0.046658   0.304529

               ----- POPULATIONS IN EACH AO -----
                             MULLIKEN      LOWDIN
              1  N  1  S      1.99317     1.89828
              2  N  1  S      0.72230     0.44029
              3  N  1  S     -0.49294     0.17269
              4  N  1  X      1.03065     0.89608
              5  N  1  Y      1.07279     0.97764
              6  N  1  Z      1.13378     0.91456
              7  N  1  X      0.15994     0.24124
              8  N  1  Y     -0.06949     0.22825
              9  N  1  Z      0.49918     0.44742
             10  N  1 XX      0.00335     0.20011
             11  N  1 YY     -0.00319     0.22264
             12  N  1 ZZ      0.02054     0.11220
             13  N  1 XY      0.01055     0.07980
             14  N  1 XZ      0.00320     0.04372
             15  N  1 YZ      0.00000     0.01628
             16  N  2  S      1.99548     1.92468
             17  N  2  S      0.77387     0.41286
             18  N  2  S      0.59470     0.30223
             19  N  2  X      1.02979     0.87523
             20  N  2  Y      1.12240     1.00261
             21  N  2  Z      0.78697     0.66335
             22  N  2  X      0.10577     0.20278
             23  N  2  Y      0.37431     0.41635
             24  N  2  Z      0.10787     0.18338
             25  N  2 XX      0.00851     0.30910
             26  N  2 YY      0.10390     0.26009
             27  N  2 ZZ      0.03592     0.12117
             28  N  2 XY      0.05912     0.10604
             29  N  2 XZ      0.03308     0.16253
             30  N  2 YZ      0.00000     0.05086
             31  O  3  S      1.99722     1.94778
             32  O  3  S      0.82550     0.54015
             33  O  3  S      0.70674     0.35559
             34  O  3  X      1.22301     1.14605
             35  O  3  Y      1.20020     1.14237
             36  O  3  Z      0.95735     0.85804
             37  O  3  X      0.44144     0.40915
             38  O  3  Y      0.29285     0.38550
             39  O  3  Z      0.21645     0.27383
             40  O  3 XX      0.00195     0.22455
             41  O  3 YY      0.03107     0.22735
             42  O  3 ZZ      0.00827     0.15241
             43  O  3 XY      0.01891     0.05331
             44  O  3 XZ      0.01570     0.03847
             45  O  3 YZ      0.00000     0.02874
             46  H  4  S      0.99608     0.58239
             47  H  4  S      0.21433     0.22599
             48  H  4  X      0.01447     0.07108
             49  H  4  Y      0.02459     0.07536
             50  H  4  Z      0.02839     0.11012
             51  H  5  S      1.09557     0.57036
             52  H  5  S      0.41138     0.26725
             53  H  5  X      0.01181     0.12869
             54  H  5  Y      0.01185     0.11412
             55  H  5  Z      0.03936     0.18691

          ----- MULLIKEN ATOMIC OVERLAP POPULATIONS -----
          (OFF-DIAGONAL ELEMENTS NEED TO BE MULTIPLIED BY 2)

             1           2           3           4           5

    1    6.0840422
    2    0.6532622   6.5564641
    3   -0.7173306  -0.0966769   8.5073644
    4    0.4001872  -0.0446890   0.0149873   0.9787844
    5   -0.3363330   0.0633231   0.2283132  -0.0714102   1.6860784

[...]
   54  H  5  Y   -0.016019   0.008550   0.005744  -0.000206   0.001350
   55  H  5  Z   -0.000401   0.000184   0.000144   0.007875   0.000029

                     11         12         13         14         15
                   -0.2663    -0.1955    -0.0890     0.0051     0.0538
                     A          A          A          A          A   
    1  N  1  S    0.000167   0.059243   0.000122   0.108216  -0.006964
    2  N  1  S   -0.000396  -0.149832  -0.000263  -0.214728   0.005833
    3  N  1  S   -0.000580  -0.285954  -0.000713  -1.059581   0.114091
    4  N  1  X    0.001707   0.190739   0.000863  -0.202546  -0.111842
    5  N  1  Y    0.013165   0.073356   0.007562  -0.048180   0.366651
    6  N  1  Z   -0.510376   0.002859  -0.297388  -0.001361   0.009001
    7  N  1  X    0.001292   0.095874   0.000983  -0.326725  -0.265798
    8  N  1  Y    0.010564   0.045545   0.008633  -0.092943   0.666409
    9  N  1  Z   -0.409635   0.001804  -0.342811  -0.002748   0.016164
   10  N  1 XX   -0.000027  -0.005894   0.000146   0.001834   0.016956
   11  N  1 YY   -0.000147   0.009072   0.000620   0.004549  -0.017455
   12  N  1 ZZ    0.000174  -0.003179  -0.000765  -0.006383   0.000499
   13  N  1 XY   -0.000029   0.006656   0.000649  -0.006982  -0.014378
   14  N  1 XZ    0.000893   0.000148  -0.023166  -0.000134  -0.000315
   15  N  1 YZ    0.002952   0.000380  -0.013840   0.000310  -0.000577
   16  N  2  S   -0.000051  -0.071908   0.000000   0.008218  -0.014109
   17  N  2  S    0.000129   0.143102   0.000046   0.000125   0.022387
   18  N  2  S    0.000087   0.359313  -0.000252  -0.169295   0.147365
   19  N  2  X    0.000039  -0.022262  -0.002050   0.088514  -0.036109
   20  N  2  Y   -0.000726  -0.298503  -0.014487   0.116833  -0.004651
   21  N  2  Z    0.025284  -0.007736   0.562921   0.003076  -0.000156
   22  N  2  X   -0.000096   0.005583  -0.002015  -0.007229  -0.083972
   23  N  2  Y   -0.000945  -0.210825  -0.013424   0.094032  -0.015354
   24  N  2  Z    0.033734  -0.005390   0.519986   0.002080  -0.000629
   25  N  2 XX    0.000229  -0.030725  -0.000060  -0.000411  -0.018245
   26  N  2 YY   -0.000331   0.014169   0.000064   0.001443   0.012428
   27  N  2 ZZ    0.000101   0.016556  -0.000004  -0.001033   0.005816
   28  N  2 XY    0.000919  -0.013574  -0.000251  -0.000181   0.013544
   29  N  2 XZ   -0.036475  -0.000546   0.010004   0.000012   0.000244
   30  N  2 YZ    0.007518  -0.000122  -0.001406   0.000084   0.000259
   31  O  3  S   -0.000001   0.008502   0.000003   0.010016   0.006099
   32  O  3  S   -0.000001  -0.032740  -0.000005  -0.017485  -0.017376
   33  O  3  S    0.000013   0.006875  -0.000023  -0.087346  -0.049595
   34  O  3  X   -0.001597   0.292382   0.001535  -0.082683  -0.059097
   35  O  3  Y   -0.010986   0.471797   0.010801  -0.116746   0.095387
   36  O  3  Z    0.432213   0.013171  -0.420931  -0.003155   0.002122
   37  O  3  X   -0.001098   0.232237   0.001444  -0.102621  -0.048312
   38  O  3  Y   -0.007539   0.350366   0.010130  -0.097061   0.108922
   39  O  3  Z    0.296188   0.009836  -0.394604  -0.002710   0.002529
   40  O  3 XX   -0.000078   0.009157  -0.000023   0.000499   0.002861
   41  O  3 YY    0.000484  -0.009633   0.000347  -0.001655  -0.001912
   42  O  3 ZZ   -0.000405   0.000476  -0.000324   0.001156  -0.000949
   43  O  3 XY   -0.000286   0.006024  -0.000065   0.002817  -0.000808
   44  O  3 XZ    0.012796   0.000191   0.003620   0.000066   0.000001
   45  O  3 YZ   -0.010921  -0.000279  -0.007754  -0.000067  -0.000030
   46  H  4  S    0.000254   0.091860   0.000357   0.154205  -0.148404
   47  H  4  S    0.000074   0.164093   0.000455   0.756329  -1.401716
   48  H  4  X    0.000059   0.002559   0.000051  -0.000454  -0.006838
   49  H  4  Y    0.000404   0.002428   0.000383   0.016866  -0.025803
   50  H  4  Z   -0.016653   0.000081  -0.015079   0.000437  -0.000654
   51  H  5  S    0.000233   0.041683   0.000311   0.169444   0.106683
   52  H  5  S    0.000102   0.076072   0.000247   1.003644   1.256658
   53  H  5  X    0.000043   0.002925   0.000044   0.015826   0.022500
   54  H  5  Y    0.000496   0.004446   0.000348  -0.016329  -0.008092
   55  H  5  Z   -0.018587   0.000139  -0.013256  -0.000372  -0.000169

                     16         17         18         19         20
                    0.1649     0.2315     0.4022     0.5123     0.5290
                     A          A          A          A          A   
    1  N  1  S    0.085021   0.022429   0.079247  -0.011381  -0.012768
    2  N  1  S   -0.131591  -0.041706  -0.307896   0.026707   0.227659
    3  N  1  S   -1.304999  -0.386837   0.101122   0.124943  -1.052692
    4  N  1  X    0.321658   0.066336  -0.048994   0.270499  -0.657867
    5  N  1  Y    0.139563   0.020449  -0.017850  -0.414759  -0.368189
    6  N  1  Z    0.004782   0.000785   0.000198  -0.009632  -0.012803
    7  N  1  X    1.392239   0.203234  -0.492045  -0.364994   1.536733
    8  N  1  Y    0.507831   0.360255  -0.159299   0.120503   0.529830
    9  N  1  Z    0.018283   0.010116  -0.005546   0.001634   0.020133
   10  N  1 XX    0.040619  -0.030150   0.018900  -0.063956  -0.065489
   11  N  1 YY   -0.028258   0.046403   0.087908   0.051593   0.058830
   12  N  1 ZZ   -0.012361  -0.016253  -0.106808   0.012363   0.006659
   13  N  1 XY    0.037882   0.042746  -0.064070   0.069045  -0.003643
   14  N  1 XZ    0.001192   0.001073  -0.001235   0.001593  -0.000370
   15  N  1 YZ   -0.000338   0.001968   0.005555   0.001150   0.001469
   16  N  2  S   -0.129846   0.054808  -0.035673  -0.018876  -0.030447
   17  N  2  S    0.284272  -0.079363   0.213758   0.165575   0.185708
   18  N  2  S    1.987378  -0.938001  -0.433431  -0.314464   1.362316
   19  N  2  X    0.362062   0.383680   0.029543  -0.387109  -0.353094
   20  N  2  Y    0.295597  -0.155634   0.103412   0.544014  -0.366808
   21  N  2  Z    0.009040  -0.002600   0.002391   0.012736  -0.011589
   22  N  2  X    0.832855   1.346863  -0.053936   0.114527   0.798707
   23  N  2  Y    0.865777  -0.734685  -0.169630  -0.452617   0.878497
   24  N  2  Z    0.025781  -0.013876  -0.004681  -0.011363   0.026594
   25  N  2 XX   -0.018908   0.022252  -0.023029  -0.013349   0.115561
   26  N  2 YY    0.006683  -0.003260   0.011492  -0.018881  -0.044554
   27  N  2 ZZ    0.012225  -0.018992   0.011537   0.032230  -0.071008
   28  N  2 XY    0.003108  -0.041110   0.008300   0.009967   0.045960
   29  N  2 XZ   -0.000062  -0.000884   0.000141   0.000062   0.002016
   30  N  2 YZ   -0.000158   0.000312   0.000063  -0.001505   0.000923
   31  O  3  S    0.020986  -0.113005   0.008190   0.035348  -0.017848
   32  O  3  S   -0.014208   0.221262  -0.064159  -0.119612   0.156704
   33  O  3  S   -0.399500   1.443601   0.174213   0.181514  -0.287769
   34  O  3  X   -0.191207   0.250690  -0.119783  -0.115870   0.097203
   35  O  3  Y    0.037791  -0.241262   0.030577   0.221095   0.138410
   36  O  3  Z    0.000234  -0.005303   0.000369   0.005358   0.003793
   37  O  3  X   -0.424651   0.656944   0.082301  -0.143234  -0.229682
   38  O  3  Y    0.032409  -0.682243   0.000998   0.080796  -0.006513
   39  O  3  Z   -0.000819  -0.015195   0.000375   0.001475  -0.001084
   40  O  3 XX    0.011209   0.006919   0.017991   0.031640  -0.034792
   41  O  3 YY   -0.014407  -0.009063  -0.004772   0.002693   0.037942
   42  O  3 ZZ    0.003198   0.002143  -0.013218  -0.034332  -0.003151
   43  O  3 XY   -0.008211  -0.002239  -0.015213  -0.059649  -0.027062
   44  O  3 XZ   -0.000179  -0.000038  -0.000270  -0.001254  -0.000864
   45  O  3 YZ   -0.000559  -0.000341   0.000220   0.000876   0.001156
   46  H  4  S   -0.039096   0.285294   0.879276   0.516003   0.255180
   47  H  4  S   -0.144673  -0.452334  -0.459159  -0.557880  -0.474727
   48  H  4  X    0.028324   0.019448  -0.030577   0.055087   0.004322
   49  H  4  Y   -0.006559   0.014483   0.063141   0.065829   0.053315
   50  H  4  Z   -0.000051   0.000439   0.001571   0.001741   0.001290
   51  H  5  S   -0.023987  -0.180161   0.948399  -0.593824  -0.121683
   52  H  5  S   -0.287531   0.194864  -0.489770   0.719297  -0.106760
   53  H  5  X    0.016046  -0.020861   0.033536  -0.108569   0.009080
   54  H  5  Y    0.025029  -0.009441  -0.068643   0.017571  -0.027175
   55  H  5  Z    0.000721  -0.000294  -0.001618   0.000240  -0.000679

                     21         22
                    0.5482     0.5993
                     A          A   
    1  N  1  S   -0.000109   0.005768
    2  N  1  S    0.000586  -0.022278
    3  N  1  S   -0.000218   0.826835
    4  N  1  X   -0.003622  -0.064976
    5  N  1  Y   -0.021699  -0.392100
    6  N  1  Z    0.824213  -0.010282
    7  N  1  X    0.004994  -0.112670
    8  N  1  Y    0.022247   0.285344
    9  N  1  Z   -0.841467   0.006490
   10  N  1 XX    0.000149   0.017862
   11  N  1 YY    0.000704   0.035647
   12  N  1 ZZ   -0.000853  -0.053508
   13  N  1 XY    0.000906   0.080652
   14  N  1 XZ   -0.030691   0.002423
   15  N  1 YZ   -0.014078   0.002833
   16  N  2  S   -0.000040   0.047980
   17  N  2  S    0.000340  -0.286684
   18  N  2  S    0.001389   0.448908
   19  N  2  X   -0.001815   0.626416
   20  N  2  Y   -0.012153   0.064128
   21  N  2  Z    0.442337   0.003380
   22  N  2  X    0.001441  -1.603642
   23  N  2  Y    0.009705   0.003569
   24  N  2  Z   -0.321197  -0.005065
   25  N  2 XX    0.000002   0.038171
   26  N  2 YY   -0.001610   0.004970
   27  N  2 ZZ    0.001609  -0.043141
   28  N  2 XY   -0.000668  -0.024510
   29  N  2 XZ    0.021157  -0.000250
   30  N  2 YZ    0.034624   0.001316
   31  O  3  S   -0.000037   0.013960
   32  O  3  S    0.000322  -0.017392
   33  O  3  S   -0.000809  -0.788353
   34  O  3  X   -0.000243   0.341488
   35  O  3  Y   -0.003798   0.025608
   36  O  3  Z    0.154746   0.001798
   37  O  3  X   -0.000245  -0.264711
   38  O  3  Y    0.001374   0.292097
   39  O  3  Z   -0.053282   0.006501
   40  O  3 XX   -0.000109  -0.013770
   41  O  3 YY    0.000900  -0.025718
   42  O  3 ZZ   -0.000791   0.039488
   43  O  3 XY   -0.000130   0.082823
   44  O  3 XZ    0.007836   0.001884
   45  O  3 YZ   -0.019183  -0.001614
   46  H  4  S   -0.000089   0.206349
   47  H  4  S   -0.000903  -0.573191
   48  H  4  X    0.000041   0.039066
   49  H  4  Y    0.000073   0.079375
   50  H  4  Z    0.003589   0.002080
   51  H  5  S   -0.000661  -0.102189
   52  H  5  S   -0.000386   0.395463
   53  H  5  X    0.000107   0.004745
   54  H  5  Y   -0.000191   0.042848
   55  H  5  Z    0.005335   0.001213

     ---------------------------------------------------------------------
     PROPERTIES FOR THE PBE      DFT FUNCTIONAL (RHF  TYPE) DENSITY MATRIX
     ---------------------------------------------------------------------

          -----------------
          ENERGY COMPONENTS
          -----------------

         WAVEFUNCTION NORMALIZATION =       1.0000000000

                ONE ELECTRON ENERGY =    -394.5266266377
                TWO ELECTRON ENERGY =     137.3994216559
           NUCLEAR REPULSION ENERGY =      71.4964112972
                                      ------------------
                       TOTAL ENERGY =    -185.6307936846

 ELECTRON-ELECTRON POTENTIAL ENERGY =     137.3994216559
  NUCLEUS-ELECTRON POTENTIAL ENERGY =    -579.5923080235
   NUCLEUS-NUCLEUS POTENTIAL ENERGY =      71.4964112972
                                      ------------------
             TOTAL POTENTIAL ENERGY =    -370.6964750705
               TOTAL KINETIC ENERGY =     185.0656813859
                 VIRIAL RATIO (V/T) =       2.0030535769

          ---------------------------------------
          MULLIKEN AND LOWDIN POPULATION ANALYSES
          ---------------------------------------

     ATOMIC MULLIKEN POPULATION IN EACH MOLECULAR ORBITAL

                      1          2          3          4          5

                  2.000000   2.000000   2.000000   2.000000   2.000000

    1             0.000053   0.001744   1.999825   0.175261   1.038281
    2             0.002093   1.998282   0.000457   0.842742   0.384101
    3             1.997836  -0.000113   0.000026   0.972605   0.368302
    4             0.000017   0.000026  -0.000128   0.005175   0.088415
    5             0.000003   0.000061  -0.000179   0.004216   0.120900

                      6          7          8          9         10

                  2.000000   2.000000   2.000000   2.000000   2.000000

    1             0.813494   1.021624   0.235145   0.427444   0.091186
    2             0.524866   0.167031   0.514422   0.967181   0.947721
    3             0.298120   0.092927   1.202950   0.602113   0.795280
    4             0.219610   0.304812   0.032941   0.001642   0.092138
    5             0.143909   0.413606   0.014542   0.001620   0.073675

                     11         12

                  2.000000   2.000000

    1             1.204564   0.120985
    2             0.018453   0.542941
    3             0.762985   1.216361
    4             0.006417   0.092519
    5             0.007582   0.027195

               ----- POPULATIONS IN EACH AO -----
                             MULLIKEN      LOWDIN
              1  N  1  S      1.99393     1.97017
              2  N  1  S      0.84481     0.50714
              3  N  1  S      0.54325     0.34257
              4  N  1  X      0.76912     0.69868
              5  N  1  Y      0.78852     0.70248
              6  N  1  Z      0.95441     0.91297
              7  N  1  X      0.24412     0.37923
              8  N  1  Y      0.29349     0.44760
              9  N  1  Z      0.67297     0.66171
             10  N  1 XX      0.00260     0.19440
             11  N  1 YY      0.00819     0.18549
             12  N  1 ZZ      0.00993     0.13702
             13  N  1 XY      0.00367     0.02422
             14  N  1 XZ      0.00059     0.00640
             15  N  1 YZ      0.00000     0.00104
             16  N  2  S      1.99488     1.97171
             17  N  2  S      0.92660     0.56275
             18  N  2  S      0.78088     0.42300
             19  N  2  X      0.71041     0.63973
             20  N  2  Y      0.95084     0.91002
             21  N  2  Z      0.60681     0.54925
             22  N  2  X      0.12541     0.29180
             23  N  2  Y      0.37558     0.49812
             24  N  2  Z      0.35207     0.40380
             25  N  2 XX      0.00844     0.21484
             26  N  2 YY      0.02591     0.19570
             27  N  2 ZZ      0.02546     0.17545
             28  N  2 XY      0.01825     0.04403
             29  N  2 XZ      0.00876     0.03717
             30  N  2 YZ      0.00000     0.01012
             31  O  3  S      1.99532     1.97180
             32  O  3  S      0.93419     0.66893
             33  O  3  S      0.94768     0.50744
             34  O  3  X      0.97105     0.92837
             35  O  3  Y      1.04114     1.00509
             36  O  3  Z      0.84997     0.80954
             37  O  3  X      0.49397     0.55614
             38  O  3  Y      0.53981     0.60206
             39  O  3  Z      0.50633     0.54646
             40  O  3 XX      0.00347     0.20120
             41  O  3 YY      0.00714     0.19575
             42  O  3 ZZ      0.01032     0.19530
             43  O  3 XY      0.00556     0.01692
             44  O  3 XZ      0.00344     0.00746
             45  O  3 YZ      0.00000     0.00464
             46  H  4  S      0.70235     0.57283
             47  H  4  S      0.10753     0.21140
             48  H  4  X      0.00352     0.01002
             49  H  4  Y      0.02212     0.04248
             50  H  4  Z      0.00807     0.02361
             51  H  5  S      0.71387     0.57474
             52  H  5  S      0.05863     0.17275
             53  H  5  X      0.01464     0.02896
             54  H  5  Y      0.01078     0.02136
             55  H  5  Z      0.00920     0.02613

          ----- MULLIKEN ATOMIC OVERLAP POPULATIONS -----
          (OFF-DIAGONAL ELEMENTS NEED TO BE MULTIPLIED BY 2)

             1           2           3           4           5

    1    6.4626137
    2    0.2029347   6.4003681
    3   -0.1460666   0.3176328   8.1038332
    4    0.2837249  -0.0089707   0.0261375   0.5535607
    5    0.3263980  -0.0016746   0.0078551  -0.0108697   0.4854212

          TOTAL MULLIKEN AND LOWDIN ATOMIC POPULATIONS
       ATOM         MULL.POP.    CHARGE          LOW.POP.     CHARGE
    1 N             7.129605   -0.129605         7.171123   -0.171123
    2 N             6.910290    0.089710         6.927491    0.072509
    3 O             8.309392   -0.309392         8.217099   -0.217099
    4 H             0.843583    0.156417         0.860337    0.139663
    5 H             0.807130    0.192870         0.823949    0.176051

          MULLIKEN SPHERICAL HARMONIC POPULATIONS
       ATOM           S       P       D      F      G      H      I    TOTAL
    1 N             3.38    3.72    0.02   0.00   0.00   0.00   0.00    7.13
    2 N             3.70    3.12    0.09   0.00   0.00   0.00   0.00    6.91
    3 O             3.88    4.40    0.03   0.00   0.00   0.00   0.00    8.31
    4 H             0.81    0.03    0.00   0.00   0.00   0.00   0.00    0.84
    5 H             0.77    0.03    0.00   0.00   0.00   0.00   0.00    0.81

          -------------------------------
          BOND ORDER AND VALENCE ANALYSIS     BOND ORDER THRESHOLD=0.050
          -------------------------------

                   BOND                       BOND                       BOND
  ATOM PAIR DIST  ORDER      ATOM PAIR DIST  ORDER      ATOM PAIR DIST  ORDER
    1   2  1.343  1.233        1   3  2.157  0.203        1   4  1.033  0.890
    1   5  1.021  0.919        2   3  1.227  1.667        2   4  2.063  0.068
    3   4  2.368  0.067

                       TOTAL       BONDED        FREE
      ATOM            VALENCE     VALENCE     VALENCE
    1 N                 3.245       3.245      -0.000
    2 N                 2.983       2.983       0.000
    3 O                 1.977       1.977      -0.000
    4 H                 1.030       1.030       0.000
    5 H                 0.980       0.980       0.000

          ---------------------
          ELECTROSTATIC MOMENTS
          ---------------------

 POINT   1           X           Y           Z (BOHR)    CHARGE
                 0.000000    0.000000   -0.000000        0.00 (A.U.)
         DX          DY          DZ         /D/  (DEBYE)
     3.582759    0.385592    0.019775    3.603503
 ...... END OF PROPERTY EVALUATION ......
 STEP CPU TIME =     0.02 TOTAL CPU TIME =        132.7 (      2.2 MIN)
 TOTAL WALL CLOCK TIME=        134.6 SECONDS, CPU UTILIZATION IS    98.60%
  $VIB   
          IVIB=   0 IATOM=   0 ICOORD=   0 E=     -185.6307936846
 -4.944854569E-05 5.166536270E-05-2.515582313E-06-1.816337515E-05 1.431649016E-05
  5.028182963E-06 3.190653634E-05-2.508094679E-05-3.423222558E-06 2.174271607E-06
  6.132079016E-06 2.925843350E-06 3.353111290E-05-4.703298509E-05-2.015221442E-06
  3.582759230E+00 3.855918304E-01 1.977536625E-02
 ......END OF GEOMETRY SEARCH......
 STEP CPU TIME =     0.01 TOTAL CPU TIME =        132.7 (      2.2 MIN)
 TOTAL WALL CLOCK TIME=        134.6 SECONDS, CPU UTILIZATION IS    98.60%
                991406  WORDS OF DYNAMIC MEMORY USED
 EXECUTION OF GAMESS TERMINATED NORMALLY Sun Oct  6 23:31:46 2019
 DDI: 263640 bytes (0.3 MB / 0 MWords) used by master data server.

 ----------------------------------------
 CPU timing information for all processes
 ========================================
 0: 131.201 + 1.485 = 132.686
 ----------------------------------------
 ddikick.x: exited gracefully.
----- accounting info -----
Files used on the master node d12chas537.crc.nd.edu were:
-rw-r--r-- 1 wschnei1 campus 434706 Oct  6 23:31 /scratch365/wschnei1/opt-dlc-PC1.F07
Sun Oct  6 23:31:49 EDT 2019
0.471u 0.318s 2:18.34 0.5%	0+0k 0+888io 0pf+0w
