----- GAMESS execution script 'rungms' -----
This job is running on host d12chas540.crc.nd.edu
under operating system Linux at Fri Oct 4 00:53:30 EDT 2019
SGE has assigned the following compute nodes to this run:
Available scratch disk space (Kbyte units) at beginning of the job is
Filesystem      1K-blocks     Used  Available Use% Mounted on
/dev/sda2      1949705068 49613248 1900091820   3% /
GAMESS temporary binary files will be written to /tmp/471505.1.debug
GAMESS supplementary output files will be written to /afs/crc.nd.edu/user/w/wschnei1/scr
Copying input file opt-cart.inp to your run's scratch directory...
reading your own /afs/crc.nd.edu/user/w/wschnei1/.gmsrc

 Distributed Data Interface kickoff program.
 Initiating 1 compute processes on 1 nodes to run the following command:
 /afs/crc.nd.edu/x86_64_linux/g/gamess/nov-2017/gamess/gamess.00.x opt-cart 

          ******************************************************
          *         GAMESS VERSION = 11 NOV 2017 (R3)         *
          *             FROM IOWA STATE UNIVERSITY             *
          * M.W.SCHMIDT, K.K.BALDRIDGE, J.A.BOATZ, S.T.ELBERT, *
          *   M.S.GORDON, J.H.JENSEN, S.KOSEKI, N.MATSUNAGA,   *
          *          K.A.NGUYEN, S.J.SU, T.L.WINDUS,           *
          *       TOGETHER WITH M.DUPUIS, J.A.MONTGOMERY       *
          *         J.COMPUT.CHEM.  14, 1347-1363(1993)        *
          **************** 64 BIT INTEL VERSION ****************

  SINCE 1993, STUDENTS AND POSTDOCS WORKING AT IOWA STATE UNIVERSITY
  AND ALSO IN THEIR VARIOUS JOBS AFTER LEAVING ISU HAVE MADE IMPORTANT
  CONTRIBUTIONS TO THE CODE:
     IVANA ADAMOVIC, CHRISTINE AIKENS, YURI ALEXEEV, POOJA ARORA,
     ANDREY ASADCHEV, ROB BELL, PRADIPTA BANDYOPADHYAY, JONATHAN BENTZ,
     BRETT BODE, KURT BRORSEN, CALEB CARLIN, GALINA CHABAN, WEI CHEN,
     CHEOL HO CHOI, PAUL DAY, ALBERT DEFUSCO, NUWAN DESILVA, TIM DUDLEY,
     DMITRI FEDOROV, ALEX FINDLATER, GRAHAM FLETCHER, MARK FREITAG,
     KURT GLAESEMANN, ANASTASIA GUININA,
     DAN KEMP, GRANT MERRILL, NORIYUKI MINEZAWA, JONATHAN MULLIN,
     TAKESHI NAGATA, SEAN NEDD, HEATHER NETZLOFF, BOSILJKA NJEGIC, RYAN OLSON,
     MIKE PAK, BUU PHAM,
     SPENCER PRUITT, LUKE ROSKOP, JIM SHOEMAKER, LYUDMILA SLIPCHENKO,
     TONY SMITH, SAROM SOK LEANG, JIE SONG, TETSUYA TAKETSUGU, SIMON WEBB,
     PENG XU, SOOHAENG YOO, FEDERICO ZAHARIEV

  ADDITIONAL CODE HAS BEEN PROVIDED BY COLLABORATORS IN OTHER GROUPS:
     IOWA STATE UNIVERSITY:
          JOE IVANIC, AARON WEST, LAIMUTIS BYTAUTAS, KLAUS RUEDENBERG
     UNIVERSITY OF TOKYO: KIMIHIKO HIRAO, TAKAHITO NAKAJIMA,
          TAKAO TSUNEDA, MUNEAKI KAMIYA, SUSUMU YANAGISAWA,
          KIYOSHI YAGI, MAHITO CHIBA, SEIKEN TOKURA, NAOAKI KAWAKAMI
     UNIVERSITY OF AARHUS: FRANK JENSEN
     UNIVERSITY OF IOWA: VISVALDAS KAIRYS, HUI LI
     NATIONAL INST. OF STANDARDS AND TECHNOLOGY: WALT STEVENS, DAVID GARMER
     UNIVERSITY OF PISA: BENEDETTA MENNUCCI, JACOPO TOMASI
     UNIVERSITY OF MEMPHIS: HENRY KURTZ, PRAKASHAN KORAMBATH
     UNIVERSITY OF ALBERTA: TOBY ZENG, MARIUSZ KLOBUKOWSKI
     UNIVERSITY OF NEW ENGLAND: MARK SPACKMAN
     MIE UNIVERSITY: HIROAKI UMEDA
     NAT. INST. OF ADVANCED INDUSTRIAL SCIENCE AND TECHNOLOGY: KAZUO KITAURA
     MICHIGAN STATE UNIVERSITY:
          KAROL KOWALSKI, MARTA WLOCH, JEFFREY GOUR, JESSE LUTZ,
          WEI LI, PIOTR PIECUCH
     UNIVERSITY OF SILESIA: MONIKA MUSIAL, STANISLAW KUCHARSKI
     FACULTES UNIVERSITAIRES NOTRE-DAME DE LA PAIX:
          OLIVIER QUINET, BENOIT CHAMPAGNE
     UNIVERSITY OF CALIFORNIA - SANTA BARBARA: BERNARD KIRTMAN
     INSTITUTE FOR MOLECULAR SCIENCE:
          KAZUYA ISHIMURA, MICHIO KATOUDA, AND SHIGERU NAGASE
     UNIVERSITY OF NOTRE DAME: ANNA POMOGAEVA, DAN CHIPMAN
     KYUSHU UNIVERSITY:
          HARUYUKI NAKANO,
          FENG LONG GU, JACEK KORCHOWIEC, MARCIN MAKOWSKI, AND YURIKO AOKI,
          HIROTOSHI MORI AND EISAKU MIYOSHI
     PENNSYLVANIA STATE UNIVERSITY:
          TZVETELIN IORDANOV, CHET SWALINA, JONATHAN SKONE,
          SHARON HAMMES-SCHIFFER
     WASEDA UNIVERSITY:
          MASATO KOBAYASHI, TOMOKO AKAMA, TSUGUKI TOUMA,
          TAKESHI YOSHIKAWA, YASUHIRO IKABATA, JUNJI SEINO,
          YUYA NAKAJIMA, HIROMI NAKAI
     NANJING UNIVERSITY: SHUHUA LI
     UNIVERSITY OF NEBRASKA:
          PEIFENG SU, DEJUN SI, NANDUN THELLAMUREGE, YALI WANG, HUI LI
     UNIVERSITY OF ZURICH: ROBERTO PEVERATI, KIM BALDRIDGE
     N. COPERNICUS UNIVERSITY AND JACKSON STATE UNIVERSITY:
          MARIA BARYSZ
     UNIVERSITY OF COPENHAGEN: Jimmy Kromann, CASPER STEINMANN
     TOKYO INSTITUTE OF TECHNOLOGY: HIROYA NAKATA
     NAGOYA UNIVERSITY: YOSHIO NISHIMOTO, STEPHAN IRLE
     MOSCOW STATE UNIVERSITY: VLADIMIR MIRONOV

 EXECUTION OF GAMESS BEGUN Fri Oct  4 00:53:30 2019

            ECHO OF THE FIRST FEW INPUT CARDS -
 INPUT CARD> $CONTRL SCFTYP=RHF DFTTYP=PBE RUNTYP=OPTIMIZE COORD=CART ISPHER=1 $END         
 INPUT CARD> $BASIS GBASIS=PCseg-0 $END                                                     
 INPUT CARD> $DATA                                                                          
 INPUT CARD>FCH2CH2F cartesian optimization calculation                                     
 INPUT CARD>C1                                                                              
 INPUT CARD>N 7 0.00000000 0.00000000 0.00000000                                            
 INPUT CARD>N 7 0.87068800 0.43708500 0.02898800                                            
 INPUT CARD>O 8 1.32984400 -0.10682200 -0.01102700                                          
 INPUT CARD>H 1 -0.01026300 -0.60188200 0.19954500                                          
 INPUT CARD>H 1 -0.37370800 0.29781100 -0.17504000                                          
 INPUT CARD> $END                                                                           
 INPUT CARD>                                                                                
    1000000 WORDS OF MEMORY AVAILABLE


                    * * * WARNING * * *
 OLD KEYWORD COORD=CART SELECTED, AUTOMATICALLY CHANGED TO COORD=PRINAXIS.
 YOUR MOLECULE'S COORDINATES WILL BE CHANGED TO PRINCIPAL AXES BY
   A) TRANSLATION TO THE CENTER OF MASS, THEN
   B) ROTATION TO HAVE A DIAGONAL MOMENT OF INERTIA TENSOR.

 HOWEVER, NOTHING ELSE IN YOUR INPUT WILL BE ROTATED IN THE SAME WAY,
 SO IF YOU HAVE A $VEC, $VIB, $GRAD, $HESS, EFP PARTICLE COORDINATES,
 OR ANYTHING ELSE THAT DEPENDS ON THE INITIAL ORIENTATION, THAT DATA
 WILL NOT BE USED CORRECTLY IN THIS RUN.

 THE PURPOSE OF COORD=PRINAXIS IS TO BE USED ONCE, ONLY AT THE VERY
 BEGINNING OF A SERIES OF COMPUTATIONS, PERHAPS TO FIND THE SYMMETRY
 UNIQUE ATOMS FROM AN ARBITRARY INITIAL ORIENTATION.

 AFTER THE FIRST RUN, YOU SHOULD USE ONLY COORD=UNIQUE, TO ENSURE THAT
 THE COORDINATES WHICH YOU READ IN ARE THE COORDINATES THAT ARE USED.


     BASIS OPTIONS
     -------------
     GBASIS=PCSEG-0      IGAUSS=       0      POLAR=NONE    
     NDFUNC=       0     NFFUNC=       0     DIFFSP=       F
     NPFUNC=       0      DIFFS=       F     BASNAM=        


     RUN TITLE
     ---------
 FCH2CH2F cartesian optimization calculation                                     

 THE POINT GROUP OF THE MOLECULE IS C1      
 THE ORDER OF THE PRINCIPAL AXIS IS     0

 THE MOMENTS OF INERTIA ARE (AMU-ANGSTROM**2)
 IXX=     3.029   IYY=    15.352   IZZ=    18.215

 ATOM      ATOMIC                      COORDINATES (BOHR)
           CHARGE         X                   Y                   Z
 N           7.0     1.3583047150        0.1685953864       -0.0104411146
 N           7.0    -0.2870572227       -0.6573750875        0.0443385223
 O           8.0    -1.1547360057        0.3704603580       -0.0312782124
 H           1.0     1.3776993952        1.3059873059        0.3666446504
 H           1.0     2.0645101773       -0.3941858676       -0.3412191850

          INTERNUCLEAR DISTANCES (ANGS.)
          ------------------------------

                1 N          2 N          3 O          4 H          5 H     

   1 N       0.0000000    0.9746698 *  1.3341730 *  0.6341810 *  0.5089087 *
   2 N       0.9746698 *  0.0000000    0.7129237 *  1.3728135 *  1.2686789 *
   3 O       1.3341730 *  0.7129237 *  0.0000000    1.4440609 *  1.7586124 *
   4 H       0.6341810 *  1.3728135 *  1.4440609 *  0.0000000    1.0401220 *
   5 H       0.5089087 *  1.2686789 *  1.7586124 *  1.0401220 *  0.0000000  

  * ... LESS THAN  3.000


     ATOMIC BASIS SET
     ----------------
 THE CONTRACTED PRIMITIVE FUNCTIONS HAVE BEEN UNNORMALIZED
 THE CONTRACTED BASIS FUNCTIONS ARE NOW NORMALIZED TO UNITY

  SHELL TYPE  PRIMITIVE        EXPONENT          CONTRACTION COEFFICIENT(S)

 N         

      1   S       1           653.2830000    0.018078595424
      1   S       2            98.6100000    0.125779429657
      1   S       3            22.0574000    0.439517743125
      1   S       4             5.8232400    0.554434931278

      2   S       5             0.6370840    1.000000000000

      3   S       6             0.1996370    1.000000000000

      4   P       7             6.3222700    0.219071861407
      4   P       8             1.2807600    0.875272129958

      5   P       9             0.2789500    1.000000000000

 N         

      6   S      10           653.2830000    0.018078595424
      6   S      11            98.6100000    0.125779429657
      6   S      12            22.0574000    0.439517743125
      6   S      13             5.8232400    0.554434931278

      7   S      14             0.6370840    1.000000000000

      8   S      15             0.1996370    1.000000000000

      9   P      16             6.3222700    0.219071861407
      9   P      17             1.2807600    0.875272129958

     10   P      18             0.2789500    1.000000000000

 O         

     11   S      19           864.9000000    0.017860101012
     11   S      20           130.5310000    0.124649763755
     11   S      21            29.2551000    0.438570969310
     11   S      22             7.7696500    0.555523812554

     12   S      23             0.8697880    1.000000000000

     13   S      24             0.2697830    1.000000000000

     14   P      25             8.3055300    0.227970846478
     14   P      26             1.6951600    0.868797957598

     15   P      27             0.3579510    1.000000000000

 H         

     16   S      28             4.3447300    0.167654352461
     16   S      29             0.6604870    0.896889788192

     17   S      30             0.1366870    1.000000000000

 H         

     18   S      31             4.3447300    0.167654352461
     18   S      32             0.6604870    0.896889788192

     19   S      33             0.1366870    1.000000000000

 TOTAL NUMBER OF BASIS SET SHELLS             =   19
 NUMBER OF CARTESIAN GAUSSIAN BASIS FUNCTIONS =   31
 NOTE: THIS RUN WILL RESTRICT THE MO VARIATION SPACE TO SPHERICAL HARMONICS.
 THE NUMBER OF ORBITALS KEPT IN THE VARIATIONAL SPACE WILL BE PRINTED LATER.
 NUMBER OF ELECTRONS                          =   24
 CHARGE OF MOLECULE                           =    0
 SPIN MULTIPLICITY                            =    1
 NUMBER OF OCCUPIED ORBITALS (ALPHA)          =   12
 NUMBER OF OCCUPIED ORBITALS (BETA )          =   12
 TOTAL NUMBER OF ATOMS                        =    5
 THE NUCLEAR REPULSION ENERGY IS      114.9672129547

     LEBEDEV GRID-BASED DFT OPTIONS
     ------------------------------
     DFTTYP=PBE     
     NRAD  =      96     NLEB  =     302
     NRAD0 =      24     NLEB0 =     110
     SWOFF =    5.00E-03 (PURE SCF -> DFT)
     SWITCH=    3.00E-04 (COARSE -> TIGHT GRID)
     THRESH=    0.00E+00 GTHRE=    1.00E+00

 GRIMME'S EMPIRICAL DISPERSION CORRECTION= F

     $CONTRL OPTIONS
     ---------------
 SCFTYP=RHF          RUNTYP=OPTIMIZE     EXETYP=RUN     
 MPLEVL=       0     CITYP =NONE         CCTYP =NONE         VBTYP =NONE    
 DFTTYP=PBE          TDDFT =NONE    
 MULT  =       1     ICHARG=       0     NZVAR =       0     COORD =PRINAXIS
 PP    =NONE         RELWFN=NONE         LOCAL =NONE         NUMGRD=       F
 ISPHER=       1     NOSYM =       0     MAXIT =      30     UNITS =ANGS    
 PLTORB=       F     MOLPLT=       F     AIMPAC=       F     FRIEND=        
 NPRINT=       7     IREST =       0     GEOM  =INPUT   
 NORMF =       0     NORMP =       0     ITOL  =      20     ICUT  =       9
 INTTYP=BEST         GRDTYP=BEST         QMTTOL= 1.0E-06

     $SYSTEM OPTIONS
     ---------------
  REPLICATED MEMORY=     1000000 WORDS (ON EVERY NODE).
 DISTRIBUTED MEMDDI=           0 MILLION WORDS IN AGGREGATE,
 MEMDDI DISTRIBUTED OVER   1 PROCESSORS IS           0 WORDS/PROCESSOR.
 TOTAL MEMORY REQUESTED ON EACH PROCESSOR=     1000000 WORDS.
 TIMLIM=      525600.00 MINUTES, OR     365.0 DAYS.
 PARALL= F  BALTYP=  DLB     KDIAG=    0  COREFL= F
 MXSEQ2=     300 MXSEQ3=     150  mem10=         0

          ----------------
          PROPERTIES INPUT
          ----------------

     MOMENTS            FIELD           POTENTIAL          DENSITY
 IEMOM =       1   IEFLD =       0   IEPOT =       0   IEDEN =       0
 WHERE =COMASS     WHERE =NUCLEI     WHERE =NUCLEI     WHERE =NUCLEI  
 OUTPUT=BOTH       OUTPUT=BOTH       OUTPUT=BOTH       OUTPUT=BOTH    
 IEMINT=       0   IEFINT=       0                     IEDINT=       0
                                                       MORB  =       0
          EXTRAPOLATION IN EFFECT
          DIIS IN EFFECT
 ORBITAL PRINTING OPTION: NPREO=     1    31     2     1

     -------------------------------
     INTEGRAL TRANSFORMATION OPTIONS
     -------------------------------
     NWORD  =            0
     CUTOFF = 1.0E-09     MPTRAN =       0
     DIRTRF =       F     AOINTS =DUP     

          ----------------------
          INTEGRAL INPUT OPTIONS
          ----------------------
 NOPK  =       1 NORDER=       0 SCHWRZ=       F

     ------------------------------------------
     THE POINT GROUP IS C1 , NAXIS= 0, ORDER= 1
     ------------------------------------------

 -- VARIATIONAL SPACE WILL BE RESTRICTED TO PURE SPHERICAL HARMONICS ONLY --
 AFTER EXCLUDING CONTAMINANT COMBINATIONS FROM THE CARTESIAN GAUSSIAN BASIS
 SET, THE NUMBER OF SPHERICAL HARMONICS KEPT IN THE VARIATION SPACE IS   31

     DIMENSIONS OF THE SYMMETRY SUBSPACES ARE
 A   =   31

 ..... DONE SETTING UP THE RUN .....
 STEP CPU TIME =     0.02 TOTAL CPU TIME =          0.0 (      0.0 MIN)
 TOTAL WALL CLOCK TIME=          0.0 SECONDS, CPU UTILIZATION IS    66.67%


          -----------------------------
          STATIONARY POINT LOCATION RUN
          -----------------------------

 OBTAINING INITIAL HESSIAN, HESS=GUESS   
 CARTESIAN COORDINATE OPTIMIZATION USING BADGER'S RULE FORCE CONSTANT GUESS

          PARAMETERS CONTROLLING GEOMETRY SEARCH ARE
          METHOD =QA                  UPHESS =BFGS    
          NNEG   =         0          NFRZ   =         0
          NSTEP  =        50          IFOLOW =         1
          HESS   =GUESS               RESTAR =         F
          IHREP  =         0          HSSEND =         F
          NPRT   =         0          NPUN   =         0
          OPTTOL = 1.000E-04          RMIN   = 1.500E-03
          RMAX   = 1.000E-01          RLIM   = 7.000E-02
          DXMAX  = 3.000E-01          PURIFY =         F
          MOVIE  =         F          TRUPD  =         T
          TRMAX  = 5.000E-01          TRMIN  = 5.000E-02
          ITBMAT =         5          STPT   =         F
          STSTEP = 1.000E-02          PROJCT=          T

 BEGINNING GEOMETRY SEARCH POINT NSERCH=   0 ...

 COORDINATES OF ALL ATOMS ARE (ANGS)
   ATOM   CHARGE       X              Y              Z
 ------------------------------------------------------------
 N           7.0   0.7187839527   0.0892168428  -0.0055252003
 N           7.0  -0.1519041515  -0.3478679405   0.0234629372
 O           8.0  -0.6110600231   0.1960391932  -0.0165517184
 H           1.0   0.7290471762   0.6910987701   0.1940200076
 H           1.0   1.0924918166  -0.2085941931  -0.1805654297

          ********************
          1 ELECTRON INTEGRALS
          ********************
 ...... END OF ONE-ELECTRON INTEGRALS ......
 STEP CPU TIME =     0.00 TOTAL CPU TIME =          0.0 (      0.0 MIN)
 TOTAL WALL CLOCK TIME=          0.0 SECONDS, CPU UTILIZATION IS    50.00%

          -------------
          GUESS OPTIONS
          -------------
          GUESS =HUCKEL            NORB  =       0          NORDER=       0
          MIX   =       F          PRTMO =       F          PUNMO =       F
          TOLZ  = 1.0E-08          TOLE  = 1.0E-05
          SYMDEN=       F          PURIFY=       F

 INITIAL GUESS ORBITALS GENERATED BY HUCKEL   ROUTINE.
 HUCKEL GUESS REQUIRES     11924 WORDS.

 SYMMETRIES FOR INITIAL GUESS ORBITALS FOLLOW.   BOTH SET(S).
    12 ORBITALS ARE OCCUPIED (    3 CORE ORBITALS).
     4=A        5=A        6=A        7=A        8=A        9=A       10=A   
    11=A       12=A       13=A       14=A       15=A       16=A       17=A   
    18=A       19=A       20=A       21=A       22=A   
 ...... END OF INITIAL ORBITAL SELECTION ......
 STEP CPU TIME =     0.01 TOTAL CPU TIME =          0.0 (      0.0 MIN)
 TOTAL WALL CLOCK TIME=          0.0 SECONDS, CPU UTILIZATION IS    75.00%

                    ----------------------
                    AO INTEGRAL TECHNOLOGY
                    ----------------------
     S,P,L SHELL ROTATED AXIS INTEGRALS, REPROGRAMMED BY
        KAZUYA ISHIMURA (IMS) AND JOSE SIERRA (SYNSTAR).
     S,P,D,L SHELL ROTATED AXIS INTEGRALS PROGRAMMED BY
        KAZUYA ISHIMURA (INSTITUTE FOR MOLECULAR SCIENCE).
     S,P,D,F,G SHELL TO TOTAL QUARTET ANGULAR MOMENTUM SUM 5,
        ERIC PROGRAM BY GRAHAM FLETCHER (ELORET AND NASA ADVANCED
        SUPERCOMPUTING DIVISION, AMES RESEARCH CENTER).
     S,P,D,F,G,L SHELL GENERAL RYS QUADRATURE PROGRAMMED BY
        MICHEL DUPUIS (PACIFIC NORTHWEST NATIONAL LABORATORY).

          --------------------
          2 ELECTRON INTEGRALS
          --------------------

 THE -PK- OPTION IS OFF, THE INTEGRALS ARE NOT IN SUPERMATRIX FORM.
 STORING   15000 INTEGRALS/RECORD ON DISK, USING 12 BYTES/INTEGRAL.
 TWO ELECTRON INTEGRAL EVALUATION REQUIRES   89546 WORDS OF MEMORY.
 II,JST,KST,LST =  1  1  1  1 NREC =         1 INTLOC =    1
 II,JST,KST,LST =  2  1  1  1 NREC =         1 INTLOC =    2
 II,JST,KST,LST =  3  1  1  1 NREC =         1 INTLOC =    7
 II,JST,KST,LST =  4  1  1  1 NREC =         1 INTLOC =   22
 II,JST,KST,LST =  5  1  1  1 NREC =         1 INTLOC =   67
 II,JST,KST,LST =  6  1  1  1 NREC =         1 INTLOC =  214
 II,JST,KST,LST =  7  1  1  1 NREC =         1 INTLOC =  718
 II,JST,KST,LST =  8  1  1  1 NREC =         1 INTLOC = 1389
 II,JST,KST,LST =  9  1  1  1 NREC =         1 INTLOC = 2259
 II,JST,KST,LST = 10  1  1  1 NREC =         1 INTLOC = 6273
 II,JST,KST,LST = 11  1  1  1 NREC =         1 INTLOC =13062
 II,JST,KST,LST = 12  1  1  1 NREC =         2 INTLOC = 1310
 II,JST,KST,LST = 13  1  1  1 NREC =         2 INTLOC = 5299
 II,JST,KST,LST = 14  1  1  1 NREC =         2 INTLOC = 9919
 II,JST,KST,LST = 15  1  1  1 NREC =         3 INTLOC =13031
 II,JST,KST,LST = 16  1  1  1 NREC =         5 INTLOC = 8775
 II,JST,KST,LST = 17  1  1  1 NREC =         6 INTLOC = 4737
 II,JST,KST,LST = 18  1  1  1 NREC =         7 INTLOC = 1917
 II,JST,KST,LST = 19  1  1  1 NREC =         8 INTLOC =  401
 TOTAL NUMBER OF NONZERO TWO-ELECTRON INTEGRALS =              120280
          9 INTEGRAL RECORDS WERE STORED ON DISK FILE  8.
  ...... END OF TWO-ELECTRON INTEGRALS .....
 STEP CPU TIME =     0.04 TOTAL CPU TIME =          0.1 (      0.0 MIN)
 TOTAL WALL CLOCK TIME=          0.1 SECONDS, CPU UTILIZATION IS    77.78%

          --------------------------
               R-PBE SCF CALCULATION
          --------------------------

     NUCLEAR ENERGY =       114.9672129547
     MAXIT =   30     NPUNCH=    2
     EXTRAP=T  DAMP=F  SHIFT=F  RSTRCT=F  DIIS=T  DEM=F  SOSCF=F
         DENSITY MATRIX CONVERGENCE THRESHOLD=  1.00E-05
     COARSE -> FINE DFT GRID SWITCH THRESHOLD=  3.00E-04 (SWITCH IN $DFT)
                   HF -> DFT SWITCH THRESHOLD=  5.00E-03 (SWOFF IN $DFT)
     MEMORY REQUIRED FOR RHF ITERS=    232343 WORDS.

 DFT CODE IS SWITCHING FROM THE FINE GRID NRAD= 96,  NLEB=  302
                      TO THE COARSE GRID NRAD0= 24, NLEB0=  110

     EXCHANGE FUNCTIONAL   =PBE       
     CORRELATION FUNCTIONAL=PBE       
     DFT THRESHOLD         =.276E-07
     GRID CHANGE THRESHOLD =.300E-03
 FOR AN EULER-MACLAURIN QUADRATURE USING  96 RADIAL POINTS:
 SMALLEST GAUSSIAN PRIMITIVE EXPONENT=        0.1366870000 OF TYPE -S-
 ON ATOM NUMBER   4 HAS RADIAL NORMALIZATION=  1.000000
  LARGEST GAUSSIAN PRIMITIVE EXPONENT=      864.9000000000 OF TYPE -S-
 ON ATOM NUMBER   3 HAS RADIAL NORMALIZATION=  1.000000
 DFT IS SWITCHED OFF, PERFORMING PURE SCF UNTIL SWOFF THRESHOLD IS REACHED.

 ITER EX DEM     TOTAL ENERGY        E CHANGE  DENSITY CHANGE    DIIS ERROR
   1  0  0     -179.7723430699  -179.7723430699   1.299824956   0.765488840
          * * *   INITIATING DIIS PROCEDURE   * * *
   2  1  0     -180.9329039576    -1.1605608877   0.645649962   0.250856849
   3  2  0     -181.0210468960    -0.0881429384   0.187180487   0.071588377
   4  3  0     -181.0316221867    -0.0105752907   0.311307842   0.011223797
   5  4  0     -181.0329829477    -0.0013607610   0.105253838   0.002265546
   6  5  0     -181.0331015597    -0.0001186120   0.021307898   0.001060864
   7  6  0     -181.0331123438    -0.0000107840   0.005573426   0.000580123
   8  7  0     -181.0331143159    -0.0000019722   0.001984023   0.000288275
 CONVERGED TO SWOFF, SO DFT CALCULATION IS NOW SWITCHED ON.
          * * *   INITIATING DIIS PROCEDURE   * * *
   9  8  0     -181.8165235534    -0.7834092375   1.736592711   0.105409916
  10  9  0     -181.8304475749    -0.0139240214   0.723199700   0.022489694
  11 10  0     -181.8298855057     0.0005620691   0.322296491   0.034447296
  12 11  0     -181.8315581440    -0.0016726383   0.017955953   0.002990164
  13 12  0     -181.8315698251    -0.0000116811   0.023421132   0.000944286
  14 13  0     -181.8315735677    -0.0000037426   0.002706508   0.000098359
  15 14  0     -181.8315736112    -0.0000000435   0.000312139   0.000038024
  16 15  0     -181.8315736140    -0.0000000028   0.000021505   0.000002542
 DFT CODE IS SWITCHING BACK TO THE FINE GRID
          * * *   INITIATING DIIS PROCEDURE   * * *
  17 16  0     -181.8343457066    -0.0027720926   0.046801715   0.000769132
  18 17  0     -181.8343495905    -0.0000038838   0.005298833   0.000328817
  19 18  0     -181.8343496372    -0.0000000467   0.002937467   0.000298213
  20 19  0     -181.8343497639    -0.0000001268   0.000861253   0.000038429
  21 20  0     -181.8343497694    -0.0000000054   0.000249831   0.000019391
  22 21  0     -181.8343497697    -0.0000000003   0.000011442   0.000002656
  23 22  0     -181.8343497697    -0.0000000000   0.000005887   0.000000408

          -----------------
          DENSITY CONVERGED
          -----------------
     TIME TO FORM FOCK OPERATORS=       2.7 SECONDS (       0.1 SEC/ITER)
     TIME TO SOLVE SCF EQUATIONS=       0.0 SECONDS (       0.0 SEC/ITER)

 FINAL R-PBE ENERGY IS     -181.8343497697 AFTER  23 ITERATIONS
 DFT EXCHANGE + CORRELATION ENERGY =       -24.5925757440
 TOTAL ELECTRON NUMBER             =        24.0000630838

          ------------
          EIGENVECTORS
          ------------

                      1          2          3          4          5
                  -18.8130   -14.1887   -13.9547    -1.6528    -1.1302
                     A          A          A          A          A   
    1  N  1  S   -0.000034   0.010524   0.981384  -0.103624  -0.237223
    2  N  1  S    0.001932  -0.005942   0.070289   0.140721   0.371937
    3  N  1  S   -0.000671  -0.000694  -0.055515  -0.070806  -0.004786
    4  N  1  X   -0.000767   0.002051  -0.000115  -0.115536  -0.090138
    5  N  1  Y   -0.000203   0.001205  -0.001673   0.005268  -0.093608
    6  N  1  Z    0.000191   0.000017  -0.000760   0.004744  -0.009028
    7  N  1  X   -0.001733  -0.001671  -0.003533  -0.028992  -0.077492
    8  N  1  Y   -0.000587   0.000107   0.001457   0.024046  -0.002334
    9  N  1  Z   -0.001220   0.000157   0.001251   0.009915   0.012469
   10  N  2  S    0.002149   0.980506  -0.011032  -0.265703   0.005960
   11  N  2  S   -0.002867   0.083975  -0.004329   0.400366   0.029859
   12  N  2  S    0.025858   0.040437   0.003075   0.110157   0.017594
   13  N  2  X    0.001635  -0.003400  -0.002108  -0.067628   0.397095
   14  N  2  Y   -0.002512   0.011268  -0.001550   0.268459  -0.017713
   15  N  2  Z    0.000245  -0.000744   0.000068  -0.016274  -0.003772
   16  N  2  X   -0.004543  -0.018892  -0.001497  -0.006575   0.115678
   17  N  2  Y    0.004695   0.024410  -0.002530   0.079811   0.004003
   18  N  2  Z   -0.000171  -0.001617   0.000337  -0.006553  -0.004657
   19  O  3  S    0.982513  -0.010015   0.000169  -0.237400   0.135922
   20  O  3  S    0.061956  -0.003223   0.001566   0.337876  -0.230758
   21  O  3  S   -0.049187  -0.080932   0.000737  -0.002145  -0.060071
   22  O  3  X    0.007360   0.002610  -0.000171   0.203888   0.016592
   23  O  3  Y   -0.007208  -0.003654  -0.000129  -0.146576   0.217709
   24  O  3  Z    0.000716   0.000318   0.000072   0.014596  -0.018629
   25  O  3  X   -0.008138  -0.024501   0.001028   0.034837   0.027186
   26  O  3  Y    0.007202   0.027267   0.000641   0.003351   0.064330
   27  O  3  Z   -0.000743  -0.002256  -0.000489   0.002808  -0.006336
   28  H  4  S    0.000433   0.002184  -0.003478   0.032492   0.095338
   29  H  4  S    0.004612   0.000042   0.011945  -0.010666   0.004188
   30  H  5  S   -0.000219   0.002960  -0.001119   0.034803   0.166333
   31  H  5  S   -0.003677   0.001359   0.018810   0.048515   0.068186

                      6          7          8          9         10
                   -0.8624    -0.7976    -0.7469    -0.5021    -0.4779
                     A          A          A          A          A   
    1  N  1  S    0.037725  -0.107801  -0.112297   0.020683   0.026906
    2  N  1  S   -0.027799   0.107084   0.137361   0.001193  -0.104422
    3  N  1  S    0.010417   0.020260   0.091191  -0.003581  -0.147006
    4  N  1  X   -0.148083   0.264213   0.197837  -0.118733   0.172748
    5  N  1  Y    0.219082  -0.106867   0.348313   0.034394  -0.157751
    6  N  1  Z    0.191990   0.040837  -0.004827   0.084057  -0.204973
    7  N  1  X   -0.037094   0.075489   0.085610  -0.062263   0.072306
    8  N  1  Y    0.064141  -0.017198   0.142381  -0.059708   0.007365
    9  N  1  Z    0.089139   0.053496  -0.021028   0.033645  -0.135320
   10  N  2  S    0.060916  -0.043436   0.113497   0.006048   0.133048
   11  N  2  S   -0.118005   0.069226  -0.259023  -0.078457  -0.307628
   12  N  2  S   -0.091698   0.079821  -0.153345   0.066124  -0.320387
   13  N  2  X    0.062860  -0.149205  -0.179021   0.134110   0.025043
   14  N  2  Y    0.108900  -0.147694   0.000251  -0.318032   0.173725
   15  N  2  Z    0.314512   0.267946  -0.132194  -0.014782   0.053858
   16  N  2  X   -0.012424  -0.010643  -0.084082   0.037881   0.073870
   17  N  2  Y    0.038714  -0.055082  -0.011860  -0.162497   0.066433
   18  N  2  Z    0.138207   0.113923  -0.051987  -0.004124   0.021435
   19  O  3  S    0.014511  -0.016319  -0.032584  -0.092398  -0.143930
   20  O  3  S   -0.032194   0.036557   0.061128   0.158782   0.276300
   21  O  3  S    0.046670   0.004673   0.139924   0.563345   0.561639
   22  O  3  X    0.077936  -0.155065  -0.016137  -0.347874   0.057320
   23  O  3  Y    0.129567  -0.133737   0.009230   0.244368   0.273275
   24  O  3  Z    0.256981   0.244916  -0.124262  -0.077248   0.116510
   25  O  3  X    0.093437  -0.128982   0.049607  -0.162603   0.093379
   26  O  3  Y    0.078321  -0.094326   0.005731   0.099709   0.190723
   27  O  3  Z    0.166832   0.163196  -0.089631  -0.056010   0.111638
   28  H  4  S    0.126801   0.054070   0.358759   0.080792  -0.219092
   29  H  4  S   -0.024538   0.016914   0.048952   0.114975  -0.058305
   30  H  5  S   -0.209265   0.285757   0.090471  -0.175935   0.267329
   31  H  5  S    0.002758   0.055435   0.022738  -0.093270   0.122358

                     11         12         13         14         15
                   -0.2575    -0.0294     0.1118     0.1419     0.1616
                     A          A          A          A          A   
    1  N  1  S    0.003595  -0.122342  -0.057429   0.021920  -0.001122
    2  N  1  S   -0.026719   0.320978   0.025436   0.017306  -0.008544
    3  N  1  S   -0.079833   1.098136   2.278792  -1.225619  -0.309871
    4  N  1  X    0.147426  -0.219609   0.123377  -0.139639  -0.046070
    5  N  1  Y   -0.176613  -0.042456   0.122599   0.084409   0.142477
    6  N  1  Z    0.431796  -0.016612  -0.033185  -0.058851   0.150233
    7  N  1  X    0.165816  -0.251677   0.009609  -0.216886  -0.131110
    8  N  1  Y   -0.155630  -0.100600   0.288123   0.358886   0.471809
    9  N  1  Z    0.575499  -0.045748  -0.099239  -0.223361   0.490538
   10  N  2  S    0.038211   0.058387  -0.020521   0.030375   0.024460
   11  N  2  S   -0.071388  -0.050729   0.002380  -0.022688  -0.051802
   12  N  2  S   -0.180284  -0.966763  -0.364343   0.421474   0.275041
   13  N  2  X    0.000835   0.135329  -0.037878   0.031211   0.009002
   14  N  2  Y    0.136287   0.226160  -0.101929   0.094261   0.012290
   15  N  2  Z   -0.029397  -0.018005   0.201632   0.332827  -0.224911
   16  N  2  X    0.048386   0.036503  -0.195698   0.064838   0.053890
   17  N  2  Y    0.108847   0.254429  -0.407464   0.378658   0.065753
   18  N  2  Z    0.004072  -0.027745   0.461343   0.780322  -0.684078
   19  O  3  S   -0.058156  -0.013554  -0.014455   0.007508  -0.020657
   20  O  3  S    0.124252  -0.003049   0.032937  -0.024799   0.049092
   21  O  3  S    0.180165   0.197513   0.447104  -0.420979  -0.032744
   22  O  3  X    0.063110  -0.369920   0.074313  -0.080137  -0.016935
   23  O  3  Y    0.018196  -0.233051   0.113895  -0.057406   0.057150
   24  O  3  Z   -0.255789   0.032141  -0.144351  -0.230240   0.206008
   25  O  3  X    0.038842  -0.549952   0.223620  -0.244925  -0.075705
   26  O  3  Y    0.025515  -0.384519   0.155533  -0.092432   0.109347
   27  O  3  Z   -0.295321   0.053381  -0.351547  -0.627277   0.521075
   28  H  4  S   -0.062148   0.038448  -0.021201  -0.130918   0.044874
   29  H  4  S   -0.040166  -0.337460  -1.830345  -0.408324  -1.759648
   30  H  5  S    0.083360  -0.049204   0.082877  -0.046801   0.010254
   31  H  5  S    0.063943  -0.480401  -0.859878   1.911146   1.800770

                     16         17         18         19         20
                    0.3436     0.5338     0.7198     0.7932     0.8131
                     A          A          A          A          A   
    1  N  1  S   -0.012622   0.000444  -0.052300   0.199679  -0.007394
    2  N  1  S   -0.092280  -0.367595   0.595902  -1.227337   0.085540
    3  N  1  S   -2.721634   6.246399   2.592733   3.693037   0.038826
    4  N  1  X    0.070792  -0.089178  -0.237068   0.121923  -0.100691
    5  N  1  Y    0.006997  -0.093502  -0.156457   0.086024   0.142758
    6  N  1  Z   -0.026342   0.012385   0.054998   0.019002  -0.322739
    7  N  1  X    0.985922  -2.853842  -0.023579   0.808412   0.094876
    8  N  1  Y    0.196280  -1.414083  -0.241628   0.163607  -0.284746
    9  N  1  Z   -0.004042   0.191749   0.169701  -0.139697  -0.013618
   10  N  2  S    0.106996   0.114144  -0.065078  -0.059005   0.000546
   11  N  2  S   -0.092770  -0.492232   0.505472   0.140330  -0.029104
   12  N  2  S    8.230524  -3.343445  -1.614139   0.782106  -0.384466
   13  N  2  X    0.027743  -0.365050   0.241278   0.027201   0.010958
   14  N  2  Y    0.179928  -0.186854  -0.118489  -0.198529  -0.069161
   15  N  2  Z   -0.041075   0.007205  -0.002836  -0.055255  -0.786345
   16  N  2  X   -0.505472  -2.851336  -2.481280   0.567972  -0.167299
   17  N  2  Y    2.963826  -0.377618  -0.102866   0.865949  -0.010994
   18  N  2  Z   -0.229655  -0.020414  -0.109361  -0.046748   0.981692
   19  O  3  S    0.054314   0.029038   0.067447  -0.042156  -0.014442
   20  O  3  S   -0.128585  -0.059624  -0.403701   0.180732   0.045445
   21  O  3  S   -5.896755  -1.790864  -0.519073  -0.781842   0.234204
   22  O  3  X    0.017758  -0.061472  -0.021104  -0.046021  -0.027526
   23  O  3  Y    0.022378  -0.039450   0.235430   0.065370   0.015206
   24  O  3  Z   -0.006641  -0.003108   0.027028   0.092512  -0.229574
   25  O  3  X   -1.008516  -0.157722   0.545497  -0.305018   0.176834
   26  O  3  Y    0.811447   0.579633   0.257704  -0.271116   0.000049
   27  O  3  Z   -0.047646  -0.019804   0.013852   0.020746   0.121094
   28  H  4  S   -0.098678   0.073927  -0.439245  -0.595550   0.060706
   29  H  4  S    0.355782  -0.646899  -0.435858  -0.878027  -0.084614
   30  H  5  S    0.019929   0.239929  -0.151707  -0.758820  -0.038657
   31  H  5  S   -0.506059  -0.446461  -0.120989  -1.723173   0.155022

                     21         22         23         24         25
                    0.9141     1.0053     1.0631     1.1224     1.2855
                     A          A          A          A          A   
    1  N  1  S    0.005561  -0.006656   0.025654   0.056159   0.165059
    2  N  1  S    0.082001   0.003743  -0.086119  -0.546810  -0.994186
    3  N  1  S    5.245661  -1.047508   2.337099   0.195939   2.176278
    4  N  1  X   -0.209730  -0.064001  -0.294445   0.229577   0.034524
    5  N  1  Y   -0.178177   0.175867   0.260040  -0.555163  -0.048678
    6  N  1  Z   -0.069809  -0.843711  -0.243016  -0.202349  -0.026996
    7  N  1  X   -1.198429   0.040901   0.536421  -0.905080  -0.490435
    8  N  1  Y    0.057339   0.196468  -0.840582   2.481791  -0.415349
    9  N  1  Z    0.121259   1.204118   0.179046   0.839018  -0.106127
   10  N  2  S    0.059277  -0.016350   0.053870  -0.002819   0.175481
   11  N  2  S    0.493220  -0.007059  -0.327292  -0.090173  -2.087928
   12  N  2  S   -0.723124   0.478907  -2.460885  -1.258499  -5.626791
   13  N  2  X    0.033089   0.032374  -0.126631   0.016080   0.488979
   14  N  2  Y    0.501615  -0.098560   0.235520  -0.015772   0.183243
   15  N  2  Z   -0.065417   0.317440   0.067654  -0.130679   0.090220
   16  N  2  X   -2.028022   0.221237  -0.082763   1.352577   0.888951
   17  N  2  Y   -1.214803   0.246098  -1.054894  -0.753140  -2.280754
   18  N  2  Z    0.040335  -0.671325  -0.064426  -0.059429   0.053320
   19  O  3  S   -0.141875  -0.083278   0.227823   0.121817  -0.030013
   20  O  3  S    0.938399   0.406524  -1.220973  -0.586106   0.035357
   21  O  3  S   -3.224953  -0.458706   3.310056   2.266118   6.104368
   22  O  3  X    0.025958  -0.130775   0.241146   0.138890   0.254839
   23  O  3  Y   -0.005907   0.115876  -0.236439  -0.133691   0.262859
   24  O  3  Z    0.076844   0.062992   0.114130   0.005849  -0.189952
   25  O  3  X   -0.991173   0.124521   0.365665  -0.367107   1.240485
   26  O  3  Y    1.300835  -0.212151   0.106636  -0.563734  -2.297414
   27  O  3  Z   -0.125813  -0.087501  -0.096477   0.087866   0.357649
   28  H  4  S   -0.318150  -0.076110  -0.047514  -0.546153   0.634844
   29  H  4  S   -0.807125  -0.004460  -0.200364  -1.967348  -0.088779
   30  H  5  S   -0.245186   0.210631  -0.328864   0.540093   0.260649
   31  H  5  S   -1.016141   0.547674  -1.148579   1.764666  -0.468588

                     26         27         28         29         30
                    1.3519     1.3886     1.5570     1.6732     2.4371
                     A          A          A          A          A   
    1  N  1  S   -0.013899  -0.097344   0.230185   0.118547   0.120856
    2  N  1  S   -0.005092   0.684008  -1.537848  -0.443119  -1.601066
    3  N  1  S   -2.900552  -0.458386  -1.045079   3.266138  -0.505917
    4  N  1  X   -0.482087   0.208572  -0.287787   0.630254  -0.608237
    5  N  1  Y   -0.277919   0.117862  -0.367274   0.387300   0.807959
    6  N  1  Z    0.086159   0.062965  -0.062947   0.006675   0.412433
    7  N  1  X    1.918181  -0.388102   0.796893  -1.249287  -1.025038
    8  N  1  Y    1.003362   0.007551  -0.631392  -0.639066   2.068686
    9  N  1  Z   -0.015947  -0.112713  -0.337035   0.161156   0.693891
   10  N  2  S    0.218089   0.095132  -0.124135  -0.083803  -0.071851
   11  N  2  S   -1.955492  -1.084364   1.252020   0.311626   0.644442
   12  N  2  S   -0.445015  -2.594633   3.829944  -2.461889   0.457226
   13  N  2  X   -0.172833   0.069621   0.116747   0.784489  -0.095021
   14  N  2  Y   -0.061627  -0.030898  -0.003022   0.347989   0.170733
   15  N  2  Z    0.002885  -0.396781  -0.140117  -0.019377  -0.082149
   16  N  2  X    2.391526   0.691028  -0.909882  -1.890355   1.111142
   17  N  2  Y   -1.242661  -1.081347   1.862440  -0.849082  -0.190535
   18  N  2  Z    0.053552   0.977228   0.478376  -0.023975  -0.188593
   19  O  3  S   -0.027478  -0.014780   0.000485   0.024875   0.023955
   20  O  3  S    0.016818   0.047323  -0.031528  -0.168053  -0.070609
   21  O  3  S    5.241347   3.051884  -3.781952  -0.054407  -0.405691
   22  O  3  X   -0.525863   0.041289  -0.076434  -0.458115  -0.069493
   23  O  3  Y   -0.279544   0.139678  -0.078213  -0.509731   0.241969
   24  O  3  Z    0.002532   0.843655   0.387738   0.006346   0.036061
   25  O  3  X    2.243195   0.683655  -0.523673   0.602505  -0.868904
   26  O  3  Y   -1.184456  -1.147377   1.129277   0.695423  -0.300512
   27  O  3  Z    0.125948  -1.092826  -0.745319   0.018518  -0.026912
   28  H  4  S   -0.161679  -0.347314   1.631770  -0.184330  -1.130982
   29  H  4  S   -0.107091   0.396327  -0.039843  -0.395041  -0.509880
   30  H  5  S    0.150750  -0.201132   0.595002   0.157355   2.760925
   31  H  5  S   -0.019013   0.435849  -0.399482  -0.163398   0.629161

                     31
                    2.8325
                     A   
    1  N  1  S    0.032754
    2  N  1  S   -0.146631
    3  N  1  S    0.143735
    4  N  1  X    0.348704
    5  N  1  Y   -0.132599
    6  N  1  Z   -0.075375
    7  N  1  X    0.148302
    8  N  1  Y   -0.253197
    9  N  1  Z   -0.127760
   10  N  2  S   -0.155750
   11  N  2  S    1.041065
   12  N  2  S   -1.731603
   13  N  2  X   -0.723143
   14  N  2  Y    1.056750
   15  N  2  Z   -0.071934
   16  N  2  X    0.488744
   17  N  2  Y   -0.545711
   18  N  2  Z    0.097072
   19  O  3  S    0.186820
   20  O  3  S   -1.471600
   21  O  3  S    2.089203
   22  O  3  X   -0.790087
   23  O  3  Y    0.874890
   24  O  3  Z   -0.066387
   25  O  3  X    0.429542
   26  O  3  Y   -0.386298
   27  O  3  Z    0.020903
   28  H  4  S    0.297604
   29  H  4  S    0.025752
   30  H  5  S   -0.434387
   31  H  5  S   -0.014982
 ...... END OF RHF CALCULATION ......
 STEP CPU TIME =     2.75 TOTAL CPU TIME =          2.8 (      0.0 MIN)
 TOTAL WALL CLOCK TIME=          2.8 SECONDS, CPU UTILIZATION IS    98.95%

     ---------------------------------------------------------------------
     PROPERTIES FOR THE PBE      DFT FUNCTIONAL (RHF  TYPE) DENSITY MATRIX
     ---------------------------------------------------------------------

          -----------------
          ENERGY COMPONENTS
          -----------------

         WAVEFUNCTION NORMALIZATION =       1.0000000000

                ONE ELECTRON ENERGY =    -469.2765637874
                TWO ELECTRON ENERGY =     172.4750010630
           NUCLEAR REPULSION ENERGY =     114.9672129547
                                      ------------------
                       TOTAL ENERGY =    -181.8343497697

 ELECTRON-ELECTRON POTENTIAL ENERGY =     172.4750010630
  NUCLEUS-ELECTRON POTENTIAL ENERGY =    -666.1112023283
   NUCLEUS-NUCLEUS POTENTIAL ENERGY =     114.9672129547
                                      ------------------
             TOTAL POTENTIAL ENERGY =    -378.6689883107
               TOTAL KINETIC ENERGY =     196.8346385409
                 VIRIAL RATIO (V/T) =       1.9237924337

          ---------------------------------------
          MULLIKEN AND LOWDIN POPULATION ANALYSES
          ---------------------------------------

     ATOMIC MULLIKEN POPULATION IN EACH MOLECULAR ORBITAL

                      1          2          3          4          5

                  2.000000   2.000000   2.000000   2.000000   2.000000

    1             0.000272  -0.000360   1.994795   0.143904   0.551310
    2             0.005849   2.037898  -0.000736   1.083335   0.785313
    3             1.993683  -0.037844   0.000244   0.724109   0.355211
    4             0.000385   0.000043   0.001628   0.007271   0.073571
    5            -0.000190   0.000263   0.004069   0.041381   0.234595

                      6          7          8          9         10

                  2.000000   2.000000   2.000000   2.000000   2.000000

    1             0.537464   0.462125   0.965611   0.119974   0.417255
    2             0.655763   0.571823   0.315525   0.266997   0.439136
    3             0.563090   0.606027   0.129697   1.499352   0.888621
    4             0.067670   0.023174   0.541394   0.060871   0.122416
    5             0.176013   0.336851   0.047772   0.052805   0.132573

                     11         12

                  2.000000   2.000000

    1             1.539607  -0.210655
    2             0.141745   0.852371
    3             0.304409   0.938694
    4             0.007775   0.158871
    5             0.006464   0.260719

               ----- POPULATIONS IN EACH AO -----
                             MULLIKEN      LOWDIN
              1  N  1  S      1.98313     1.97434
              2  N  1  S      0.90773     0.70238
              3  N  1  S     -0.37860     0.24659
              4  N  1  X      0.86572     0.86274
              5  N  1  Y      0.85683     0.83379
              6  N  1  Z      0.86350     0.86995
              7  N  1  X      0.24601     0.42914
              8  N  1  Y      0.27954     0.45589
              9  N  1  Z      0.89744     0.86890
             10  N  2  S      1.98291     1.97372
             11  N  2  S      0.98492     0.61929
             12  N  2  S      0.96481     0.49253
             13  N  2  X      0.86641     0.85663
             14  N  2  Y      0.94153     0.93139
             15  N  2  Z      0.64217     0.58572
             16  N  2  X      0.14739     0.36651
             17  N  2  Y      0.33746     0.68554
             18  N  2  Z      0.28742     0.35805
             19  O  3  S      1.98467     1.97491
             20  O  3  S      0.94692     0.77267
             21  O  3  S      0.83819     0.56674
             22  O  3  X      0.99658     1.02212
             23  O  3  Y      0.92715     0.94720
             24  O  3  Z      0.71837     0.70339
             25  O  3  X      0.58854     0.69588
             26  O  3  Y      0.44709     0.69558
             27  O  3  Z      0.51778     0.54706
             28  H  4  S      0.81251     0.71047
             29  H  4  S      0.25256     0.24810
             30  H  5  S      0.90036     0.73146
             31  H  5  S      0.39295     0.27132

          ----- MULLIKEN ATOMIC OVERLAP POPULATIONS -----
          (OFF-DIAGONAL ELEMENTS NEED TO BE MULTIPLIED BY 2)

             1           2           3           4           5

    1    9.8632203
    2   -1.2627542   8.2176857
    3   -1.0445918  -0.5140169   9.3046634
    4   -0.1793944   0.2415324   0.0646587   0.7738249
    5   -0.8551770   0.4725724   0.1545776   0.1644491   1.3568940

          TOTAL MULLIKEN AND LOWDIN ATOMIC POPULATIONS
       ATOM         MULL.POP.    CHARGE          LOW.POP.     CHARGE
    1 N             6.521303    0.478697         7.243715   -0.243715
    2 N             7.155019   -0.155019         6.869379    0.130621
    3 O             7.965291    0.034709         7.925545    0.074455
    4 H             1.065071   -0.065071         0.958578    0.041422
    5 H             1.293316   -0.293316         1.002783   -0.002783

          MULLIKEN SPHERICAL HARMONIC POPULATIONS
       ATOM           S       P       D      F      G      H      I    TOTAL
    1 N             2.51    4.01    0.00   0.00   0.00   0.00   0.00    6.52
    2 N             3.93    3.22    0.00   0.00   0.00   0.00   0.00    7.16
    3 O             3.77    4.20    0.00   0.00   0.00   0.00   0.00    7.97
    4 H             1.07    0.00    0.00   0.00   0.00   0.00   0.00    1.07
    5 H             1.29    0.00    0.00   0.00   0.00   0.00   0.00    1.29

          -------------------------------
          BOND ORDER AND VALENCE ANALYSIS     BOND ORDER THRESHOLD=0.050
          -------------------------------

                   BOND                       BOND                       BOND
  ATOM PAIR DIST  ORDER      ATOM PAIR DIST  ORDER      ATOM PAIR DIST  ORDER
    1   2  0.975  0.560        1   3  1.334 -0.363        1   4  0.634  0.855
    1   5  0.509  0.774        2   3  0.713  1.511        2   4  1.373  0.243
    2   5  1.269  0.269        3   4  1.444  0.140        3   5  1.759  0.244
    4   5  1.040  0.077

                       TOTAL       BONDED        FREE
      ATOM            VALENCE     VALENCE     VALENCE
    1 N                 1.826       1.826       0.000
    2 N                 2.583       2.583      -0.000
    3 O                 1.531       1.531      -0.000
    4 H                 1.315       1.315       0.000
    5 H                 1.365       1.365       0.000

          ---------------------
          ELECTROSTATIC MOMENTS
          ---------------------

 POINT   1           X           Y           Z (BOHR)    CHARGE
                 0.000000    0.000000   -0.000000        0.00 (A.U.)
         DX          DY          DZ         /D/  (DEBYE)
     0.663946    0.902654    0.005042    1.120551
 ...... END OF PROPERTY EVALUATION ......
 STEP CPU TIME =     0.00 TOTAL CPU TIME =          2.8 (      0.0 MIN)
 TOTAL WALL CLOCK TIME=          2.9 SECONDS, CPU UTILIZATION IS    98.60%

 BEGINNING ONE ELECTRON GRADIENT...
 ..... END OF 1-ELECTRON GRADIENT ......
 STEP CPU TIME =     0.00 TOTAL CPU TIME =          2.8 (      0.0 MIN)
 TOTAL WALL CLOCK TIME=          2.9 SECONDS, CPU UTILIZATION IS    98.26%

          ----------------------
          GRADIENT OF THE ENERGY
          ----------------------
 MEMORY FOR GRID POINT CONTRIBUTIONS TO THE DFT GRADIENT=    199178 WORDS.
 STEP CPU TIME =     0.55 TOTAL CPU TIME =          3.4 (      0.1 MIN)
 TOTAL WALL CLOCK TIME=          3.4 SECONDS, CPU UTILIZATION IS    98.54%
 THE COARSE/FINE SCHWARZ SCREENINGS SKIPPED            0/           0 BLOCKS.
 THE NUMBER OF GRADIENT INTEGRAL BLOCKS COMPUTED WAS     17773
 ...... END OF 2-ELECTRON GRADIENT ......
 STEP CPU TIME =     0.03 TOTAL CPU TIME =          3.4 (      0.1 MIN)
 TOTAL WALL CLOCK TIME=          3.5 SECONDS, CPU UTILIZATION IS    98.55%

          NSERCH=  0     ENERGY=    -181.8343498

                                 -----------------------
                                 GRADIENT (HARTREE/BOHR)
                                 -----------------------
        ATOM     ZNUC       DE/DX         DE/DY         DE/DZ
 --------------------------------------------------------------
    1  N            7.0     0.6413142    -0.8331841    -0.6263235
    2  N            7.0    -2.7714614     4.5707635    -0.2944266
    3  O            8.0     4.5671007    -4.2756270     0.2771355
    4  H            1.0    -0.0818802    -1.2217448    -0.3765759
    5  H            1.0    -2.3550733     1.7597924     1.0201905

          MAXIMUM GRADIENT = 4.5707635    RMS GRADIENT = 2.3194644

 NSERCH:   0  E=     -181.8343497697  GRAD. MAX=  4.5707635  R.M.S.=  2.3194644

          FORCE CONSTANT MATRIX NOT UPDATED --- TAKING FIRST STEP
          MIN SEARCH, CORRECT HESSIAN, TRYING PURE NR STEP
               NR STEP HAS LENGTH         =  10.362838
          TRIM/QA LAMBDA FOR NON-TS MODES = -27.45037998
          TRIM/QA STEP HAS LENGTH         =   0.300000
          RADIUS OF STEP TAKEN=   0.30000  CURRENT TRUST RADIUS=   0.30000

 BEGINNING GEOMETRY SEARCH POINT NSERCH=   1 ...

 COORDINATES OF ALL ATOMS ARE (ANGS)
   ATOM   CHARGE       X              Y              Z
 ------------------------------------------------------------
 N           7.0   0.7075998947   0.1041055817   0.0056779163
 N           7.0  -0.1044999242  -0.4287592036   0.0286568727
 O           8.0  -0.6914103922   0.2712818341  -0.0213559469
 H           1.0   0.7302792144   0.7138088853   0.2010008753
 H           1.0   1.1353899783  -0.2405444251  -0.1991391209

          INTERNUCLEAR DISTANCES (ANGS.)
          ------------------------------

                1 N          2 N          3 O          4 H          5 H     

   1 N       0.0000000    0.9715858 *  1.4092227 *  0.6406274 *  0.5862917 *
   2 N       0.9715858 *  0.0000000    0.9148894 *  1.4254896 *  1.2746148 *
   3 O       1.4092227 *  0.9148894 *  0.0000000    1.5054813 *  1.9054586 *
   4 H       0.6406274 *  1.4254896 *  1.5054813 *  0.0000000    1.1113132 *
   5 H       0.5862917 *  1.2746148 *  1.9054586 *  1.1113132 *  0.0000000  

  * ... LESS THAN  3.000

 ...... END OF ONE-ELECTRON INTEGRALS ......
 STEP CPU TIME =     0.00 TOTAL CPU TIME =          3.4 (      0.1 MIN)
 TOTAL WALL CLOCK TIME=          3.5 SECONDS, CPU UTILIZATION IS    98.55%
 TOTAL NUMBER OF NONZERO TWO-ELECTRON INTEGRALS =              120267
          9 INTEGRAL RECORDS WERE STORED ON DISK FILE  8.
  ...... END OF TWO-ELECTRON INTEGRALS .....
 STEP CPU TIME =     0.03 TOTAL CPU TIME =          3.4 (      0.1 MIN)
 TOTAL WALL CLOCK TIME=          3.5 SECONDS, CPU UTILIZATION IS    98.85%

          --------------------------
               R-PBE SCF CALCULATION
          --------------------------
         DENSITY MATRIX CONVERGENCE THRESHOLD=  5.00E-04
     COARSE -> FINE DFT GRID SWITCH THRESHOLD=  1.50E-02 (SWITCH IN $DFT)
                   HF -> DFT SWITCH THRESHOLD=  5.00E-03 (SWOFF IN $DFT)

 DFT CODE IS SWITCHING FROM THE FINE GRID NRAD= 96,  NLEB=  302
                      TO THE COARSE GRID NRAD0= 24, NLEB0=  110

 ITER EX DEM     TOTAL ENERGY        E CHANGE  DENSITY CHANGE    DIIS ERROR
          * * *   INITIATING DIIS PROCEDURE   * * *
   1  0  0     -183.3114546215  -183.3114546215   1.277926950   0.236356576
   2  1  0     -183.4393413183    -0.1278866968   0.402718699   0.072442846
   3  2  0     -183.4462408984    -0.0068995801   0.190138297   0.043955228
   4  3  0     -183.4508573904    -0.0046164920   0.022979971   0.006033516
   5  4  0     -183.4509507136    -0.0000933232   0.002370945   0.002222729
 DFT CODE IS SWITCHING BACK TO THE FINE GRID
          * * *   INITIATING DIIS PROCEDURE   * * *
   6  5  0     -183.4549201998    -0.0039694862   0.015157448   0.001401173
   7  6  0     -183.4549194601     0.0000007397   0.003652061   0.001773771
   8  7  0     -183.4549246026    -0.0000051425   0.000871355   0.000654360
   9  8  0     -183.4549253632    -0.0000007605   0.000180807   0.000050107
  10  9  0     -183.4549253680    -0.0000000048   0.000047022   0.000012055
  11 10  0     -183.4549253686    -0.0000000006   0.000003137   0.000001048

          -----------------
          DENSITY CONVERGED
          -----------------
     TIME TO FORM FOCK OPERATORS=       2.0 SECONDS (       0.2 SEC/ITER)
     TIME TO SOLVE SCF EQUATIONS=       0.0 SECONDS (       0.0 SEC/ITER)

 FINAL R-PBE ENERGY IS     -183.4549253686 AFTER  11 ITERATIONS
 DFT EXCHANGE + CORRELATION ENERGY =       -24.1017351845
 TOTAL ELECTRON NUMBER             =        23.9999831276
 ...... END OF RHF CALCULATION ......
 STEP CPU TIME =     2.01 TOTAL CPU TIME =          5.4 (      0.1 MIN)
 TOTAL WALL CLOCK TIME=          5.5 SECONDS, CPU UTILIZATION IS    98.91%
 ..... END OF 1-ELECTRON GRADIENT ......
 STEP CPU TIME =     0.00 TOTAL CPU TIME =          5.4 (      0.1 MIN)
 TOTAL WALL CLOCK TIME=          5.5 SECONDS, CPU UTILIZATION IS    98.73%
 MEMORY FOR GRID POINT CONTRIBUTIONS TO THE DFT GRADIENT=    199178 WORDS.
 STEP CPU TIME =     0.46 TOTAL CPU TIME =          5.9 (      0.1 MIN)
 TOTAL WALL CLOCK TIME=          6.0 SECONDS, CPU UTILIZATION IS    98.99%
 ...... END OF 2-ELECTRON GRADIENT ......
 STEP CPU TIME =     0.02 TOTAL CPU TIME =          5.9 (      0.1 MIN)
 TOTAL WALL CLOCK TIME=          6.0 SECONDS, CPU UTILIZATION IS    98.83%

          NSERCH=  1     ENERGY=    -183.4549254

                                 -----------------------
                                 GRADIENT (HARTREE/BOHR)
                                 -----------------------
        ATOM     ZNUC       DE/DX         DE/DY         DE/DZ
 --------------------------------------------------------------
    1  N            7.0    -0.1281775    -0.2105082    -0.2252858
    2  N            7.0    -0.0000538     1.4916707    -0.0726285
    3  O            8.0     1.6497216    -1.0946226     0.0520084
    4  H            1.0    -0.0850933    -1.1818810    -0.3494373
    5  H            1.0    -1.4363970     0.9953411     0.5953432

          MAXIMUM GRADIENT = 1.6497216    RMS GRADIENT = 0.8640564

 NSERCH:   1  E=     -183.4549253686  GRAD. MAX=  1.6497216  R.M.S.=  0.8640564

          HESSIAN UPDATED USING THE BFGS FORMULA
             ACTUAL ENERGY CHANGE WAS  -1.6205755989
          PREDICTED ENERGY CHANGE WAS  -2.5825708319 RATIO=  0.628
          MIN SEARCH, CORRECT HESSIAN, TRYING PURE NR STEP
               NR STEP HAS LENGTH         =  11.647854
          TRIM/QA LAMBDA FOR NON-TS MODES =  -6.61704942
          TRIM/QA STEP HAS LENGTH         =   0.300000
          RADIUS OF STEP TAKEN=   0.30000  CURRENT TRUST RADIUS=   0.30000

 BEGINNING GEOMETRY SEARCH POINT NSERCH=   2 ...

 COORDINATES OF ALL ATOMS ARE (ANGS)
   ATOM   CHARGE       X              Y              Z
 ------------------------------------------------------------
 N           7.0   0.7307414543   0.1039659821   0.0138216276
 N           7.0  -0.1550023252  -0.4675513908   0.0285683271
 O           8.0  -0.7484920403   0.2837297871  -0.0201235615
 H           1.0   0.7352951799   0.7937022984   0.2239086665
 H           1.0   1.2148165024  -0.2939540043  -0.2313344632

          INTERNUCLEAR DISTANCES (ANGS.)
          ------------------------------

                1 N          2 N          3 O          4 H          5 H     

   1 N       0.0000000    1.0542256 *  1.4905029 *  0.7210364 *  0.6728822 *
   2 N       1.0542256 *  0.0000000    0.9586576 *  1.5561325 *  1.4050228 *
   3 O       1.4905029 *  0.9586576 *  0.0000000    1.5878439 *  2.0574035 *
   4 H       0.7210364 *  1.5561325 *  1.5878439 *  0.0000000    1.2728642 *
   5 H       0.6728822 *  1.4050228 *  2.0574035 *  1.2728642 *  0.0000000  

  * ... LESS THAN  3.000

 ...... END OF ONE-ELECTRON INTEGRALS ......
 STEP CPU TIME =     0.00 TOTAL CPU TIME =          5.9 (      0.1 MIN)
 TOTAL WALL CLOCK TIME=          6.0 SECONDS, CPU UTILIZATION IS    98.83%
 TOTAL NUMBER OF NONZERO TWO-ELECTRON INTEGRALS =              120225
          9 INTEGRAL RECORDS WERE STORED ON DISK FILE  8.
  ...... END OF TWO-ELECTRON INTEGRALS .....
 STEP CPU TIME =     0.02 TOTAL CPU TIME =          5.9 (      0.1 MIN)
 TOTAL WALL CLOCK TIME=          6.0 SECONDS, CPU UTILIZATION IS    98.84%

          --------------------------
               R-PBE SCF CALCULATION
          --------------------------
         DENSITY MATRIX CONVERGENCE THRESHOLD=  5.00E-04
     COARSE -> FINE DFT GRID SWITCH THRESHOLD=  1.50E-02 (SWITCH IN $DFT)
                   HF -> DFT SWITCH THRESHOLD=  5.00E-03 (SWOFF IN $DFT)

 DFT CODE IS SWITCHING FROM THE FINE GRID NRAD= 96,  NLEB=  302
                      TO THE COARSE GRID NRAD0= 24, NLEB0=  110

 ITER EX DEM     TOTAL ENERGY        E CHANGE  DENSITY CHANGE    DIIS ERROR
          * * *   INITIATING DIIS PROCEDURE   * * *
   1  0  0     -184.1144406193  -184.1144406193   0.080558386   0.101672475
   2  1  0     -184.1266761586    -0.0122355393   0.097215981   0.073100747
   3  2  0     -184.1322925810    -0.0056164224   0.064941872   0.063689962
   4  3  0     -184.1370692633    -0.0047766824   0.029692771   0.012586025
   5  4  0     -184.1375316233    -0.0004623600   0.003886056   0.001082188
 DFT CODE IS SWITCHING BACK TO THE FINE GRID
          * * *   INITIATING DIIS PROCEDURE   * * *
   6  5  0     -184.1404939102    -0.0029622869   0.013751527   0.000936343
   7  6  0     -184.1404952309    -0.0000013206   0.003315381   0.001209686
   8  7  0     -184.1404970264    -0.0000017956   0.000423150   0.000321970
   9  8  0     -184.1404971607    -0.0000001343   0.000082662   0.000053820
  10  9  0     -184.1404971667    -0.0000000060   0.000032339   0.000026444

          -----------------
          DENSITY CONVERGED
          -----------------
     TIME TO FORM FOCK OPERATORS=       1.6 SECONDS (       0.2 SEC/ITER)
     TIME TO SOLVE SCF EQUATIONS=       0.0 SECONDS (       0.0 SEC/ITER)

 FINAL R-PBE ENERGY IS     -184.1404971667 AFTER  10 ITERATIONS
 DFT EXCHANGE + CORRELATION ENERGY =       -23.7833082248
 TOTAL ELECTRON NUMBER             =        23.9999897286
 ...... END OF RHF CALCULATION ......
 STEP CPU TIME =     1.66 TOTAL CPU TIME =          7.6 (      0.1 MIN)
 TOTAL WALL CLOCK TIME=          7.7 SECONDS, CPU UTILIZATION IS    98.83%
 ..... END OF 1-ELECTRON GRADIENT ......
 STEP CPU TIME =     0.01 TOTAL CPU TIME =          7.6 (      0.1 MIN)
 TOTAL WALL CLOCK TIME=          7.7 SECONDS, CPU UTILIZATION IS    98.83%
 MEMORY FOR GRID POINT CONTRIBUTIONS TO THE DFT GRADIENT=    199178 WORDS.
 STEP CPU TIME =     0.45 TOTAL CPU TIME =          8.1 (      0.1 MIN)
 TOTAL WALL CLOCK TIME=          8.2 SECONDS, CPU UTILIZATION IS    98.90%
 ...... END OF 2-ELECTRON GRADIENT ......
 STEP CPU TIME =     0.02 TOTAL CPU TIME =          8.1 (      0.1 MIN)
 TOTAL WALL CLOCK TIME=          8.2 SECONDS, CPU UTILIZATION IS    98.78%

          NSERCH=  2     ENERGY=    -184.1404972

                                 -----------------------
                                 GRADIENT (HARTREE/BOHR)
                                 -----------------------
        ATOM     ZNUC       DE/DX         DE/DY         DE/DZ
 --------------------------------------------------------------
    1  N            7.0    -0.2419371    -0.0278387    -0.1463699
    2  N            7.0    -0.1410431     0.9760998    -0.0384376
    3  O            8.0     1.2292509    -0.8143302     0.0328333
    4  H            1.0    -0.0359311    -0.6758266    -0.1840572
    5  H            1.0    -0.8103396     0.5418956     0.3360314

          MAXIMUM GRADIENT = 1.2292509    RMS GRADIENT = 0.5648169

 NSERCH:   2  E=     -184.1404971667  GRAD. MAX=  1.2292509  R.M.S.=  0.5648169

          HESSIAN UPDATED USING THE BFGS FORMULA
             ACTUAL ENERGY CHANGE WAS  -0.6855717981
          PREDICTED ENERGY CHANGE WAS  -0.7320548654 RATIO=  0.937
          MIN SEARCH, CORRECT HESSIAN, TRYING PURE NR STEP
               NR STEP HAS LENGTH         =  20.344446
          TRIM/QA LAMBDA FOR NON-TS MODES =  -0.97458427
          TRIM/QA STEP HAS LENGTH         =   0.500000
          RADIUS OF STEP TAKEN=   0.50000  CURRENT TRUST RADIUS=   0.50000

 BEGINNING GEOMETRY SEARCH POINT NSERCH=   3 ...

 COORDINATES OF ALL ATOMS ARE (ANGS)
   ATOM   CHARGE       X              Y              Z
 ------------------------------------------------------------
 N           7.0   0.8416972221   0.0461611049   0.0604693552
 N           7.0  -0.1975227596  -0.4953358492   0.0166334564
 O           8.0  -0.9090212575   0.3249966103  -0.0112085926
 H           1.0   0.7221542022   0.8781971988   0.2239135314
 H           1.0   1.3200513638  -0.3341263924  -0.2749671539

          INTERNUCLEAR DISTANCES (ANGS.)
          ------------------------------

                1 N          2 N          3 O          4 H          5 H     

   1 N       0.0000000    1.1726546 *  1.7742328 *  0.8563227 *  0.6971075 *
   2 N       1.1726546 *  0.0000000    1.0862553 *  1.6659423 *  1.5537215 *
   3 O       1.7742328 *  1.0862553 *  0.0000000    1.7384035 *  2.3393966 *
   4 H       0.8563227 *  1.6659423 *  1.7384035 *  0.0000000    1.4408648 *
   5 H       0.6971075 *  1.5537215 *  2.3393966 *  1.4408648 *  0.0000000  

  * ... LESS THAN  3.000

 ...... END OF ONE-ELECTRON INTEGRALS ......
 STEP CPU TIME =     0.00 TOTAL CPU TIME =          8.1 (      0.1 MIN)
 TOTAL WALL CLOCK TIME=          8.2 SECONDS, CPU UTILIZATION IS    98.78%
 TOTAL NUMBER OF NONZERO TWO-ELECTRON INTEGRALS =              119507
          8 INTEGRAL RECORDS WERE STORED ON DISK FILE  8.
  ...... END OF TWO-ELECTRON INTEGRALS .....
 STEP CPU TIME =     0.03 TOTAL CPU TIME =          8.1 (      0.1 MIN)
 TOTAL WALL CLOCK TIME=          8.2 SECONDS, CPU UTILIZATION IS    98.90%

          --------------------------
               R-PBE SCF CALCULATION
          --------------------------
         DENSITY MATRIX CONVERGENCE THRESHOLD=  5.00E-04
     COARSE -> FINE DFT GRID SWITCH THRESHOLD=  1.50E-02 (SWITCH IN $DFT)
                   HF -> DFT SWITCH THRESHOLD=  5.00E-03 (SWOFF IN $DFT)

 DFT CODE IS SWITCHING FROM THE FINE GRID NRAD= 96,  NLEB=  302
                      TO THE COARSE GRID NRAD0= 24, NLEB0=  110

 ITER EX DEM     TOTAL ENERGY        E CHANGE  DENSITY CHANGE    DIIS ERROR
          * * *   INITIATING DIIS PROCEDURE   * * *
   1  0  0     -184.6696231228  -184.6696231228   0.124335984   0.113962857
   2  1  0     -184.7185639482    -0.0489408254   0.143997954   0.071208296
   3  2  0     -184.7118657157     0.0066982326   0.075546592   0.122430261
   4  3  0     -184.7301914145    -0.0183256988   0.044551000   0.028207877
   5  4  0     -184.7317325627    -0.0015411482   0.002929020   0.001401734
 DFT CODE IS SWITCHING BACK TO THE FINE GRID
          * * *   INITIATING DIIS PROCEDURE   * * *
   6  5  0     -184.7293936561     0.0023389065   0.001862907   0.001465523
   7  6  0     -184.7293855315     0.0000081246   0.002765961   0.002370520
   8  7  0     -184.7293984294    -0.0000128979   0.000581457   0.000759410
   9  8  0     -184.7293988400    -0.0000004106   0.000332192   0.000419001
  10  9  0     -184.7293991272    -0.0000002873   0.000031084   0.000008775

          -----------------
          DENSITY CONVERGED
          -----------------
     TIME TO FORM FOCK OPERATORS=       1.6 SECONDS (       0.2 SEC/ITER)
     TIME TO SOLVE SCF EQUATIONS=       0.0 SECONDS (       0.0 SEC/ITER)

 FINAL R-PBE ENERGY IS     -184.7293991272 AFTER  10 ITERATIONS
 DFT EXCHANGE + CORRELATION ENERGY =       -23.3437995425
 TOTAL ELECTRON NUMBER             =        24.0000239535
 ...... END OF RHF CALCULATION ......
 STEP CPU TIME =     1.64 TOTAL CPU TIME =          9.8 (      0.2 MIN)
 TOTAL WALL CLOCK TIME=          9.9 SECONDS, CPU UTILIZATION IS    98.88%
 ..... END OF 1-ELECTRON GRADIENT ......
 STEP CPU TIME =     0.00 TOTAL CPU TIME =          9.8 (      0.2 MIN)
 TOTAL WALL CLOCK TIME=          9.9 SECONDS, CPU UTILIZATION IS    98.88%
 MEMORY FOR GRID POINT CONTRIBUTIONS TO THE DFT GRADIENT=    199178 WORDS.
 STEP CPU TIME =     0.45 TOTAL CPU TIME =         10.2 (      0.2 MIN)
 TOTAL WALL CLOCK TIME=         10.3 SECONDS, CPU UTILIZATION IS    98.84%
 ...... END OF 2-ELECTRON GRADIENT ......
 STEP CPU TIME =     0.02 TOTAL CPU TIME =         10.2 (      0.2 MIN)
 TOTAL WALL CLOCK TIME=         10.3 SECONDS, CPU UTILIZATION IS    98.84%

          NSERCH=  3     ENERGY=    -184.7293991

                                 -----------------------
                                 GRADIENT (HARTREE/BOHR)
                                 -----------------------
        ATOM     ZNUC       DE/DX         DE/DY         DE/DZ
 --------------------------------------------------------------
    1  N            7.0     0.2265116    -0.2541185    -0.3578202
    2  N            7.0    -0.0183434     0.3329075     0.0124867
    3  O            8.0     0.4411223    -0.2731301    -0.0050029
    4  H            1.0    -0.0063760    -0.2457730    -0.0341752
    5  H            1.0    -0.6429145     0.4401141     0.3845115

          MAXIMUM GRADIENT = 0.6429145    RMS GRADIENT = 0.3099413

 NSERCH:   3  E=     -184.7293991272  GRAD. MAX=  0.6429145  R.M.S.=  0.3099413

          HESSIAN UPDATED USING THE BFGS FORMULA
             ACTUAL ENERGY CHANGE WAS  -0.5889019605
          PREDICTED ENERGY CHANGE WAS  -0.5580756954 RATIO=  1.055
          MIN SEARCH, CORRECT HESSIAN, TRYING PURE NR STEP
               NR STEP HAS LENGTH         =  59.186654
          TRIM/QA LAMBDA FOR NON-TS MODES =  -0.88125036
          TRIM/QA STEP HAS LENGTH         =   0.500000
          RADIUS OF STEP TAKEN=   0.50000  CURRENT TRUST RADIUS=   0.50000

 BEGINNING GEOMETRY SEARCH POINT NSERCH=   4 ...

 COORDINATES OF ALL ATOMS ARE (ANGS)
   ATOM   CHARGE       X              Y              Z
 ------------------------------------------------------------
 N           7.0   0.8588411239   0.0470471865   0.2213692965
 N           7.0  -0.2303579222  -0.5146408937   0.0014622291
 O           8.0  -1.0007077968   0.3437206818  -0.0159737590
 H           1.0   0.7213608891   0.9396077082   0.1989613336
 H           1.0   1.4282224770  -0.3958420103  -0.3909785038

          INTERNUCLEAR DISTANCES (ANGS.)
          ------------------------------

                1 N          2 N          3 O          4 H          5 H     

   1 N       0.0000000    1.2450732 *  1.8979645 *  0.9033644 *  0.9462113 *
   2 N       1.2450732 *  0.0000000    1.1534850 *  1.7491751 *  1.7085116 *
   3 O       1.8979645 *  1.1534850 *  0.0000000    1.8348839 *  2.5665704 *
   4 H       0.9033644 *  1.7491751 *  1.8348839 *  0.0000000    1.6220691 *
   5 H       0.9462113 *  1.7085116 *  2.5665704 *  1.6220691 *  0.0000000  

  * ... LESS THAN  3.000

 ...... END OF ONE-ELECTRON INTEGRALS ......
 STEP CPU TIME =     0.00 TOTAL CPU TIME =         10.2 (      0.2 MIN)
 TOTAL WALL CLOCK TIME=         10.3 SECONDS, CPU UTILIZATION IS    98.84%
 TOTAL NUMBER OF NONZERO TWO-ELECTRON INTEGRALS =              118632
          8 INTEGRAL RECORDS WERE STORED ON DISK FILE  8.
  ...... END OF TWO-ELECTRON INTEGRALS .....
 STEP CPU TIME =     0.02 TOTAL CPU TIME =         10.2 (      0.2 MIN)
 TOTAL WALL CLOCK TIME=         10.4 SECONDS, CPU UTILIZATION IS    98.84%

          --------------------------
               R-PBE SCF CALCULATION
          --------------------------
         DENSITY MATRIX CONVERGENCE THRESHOLD=  5.00E-04
     COARSE -> FINE DFT GRID SWITCH THRESHOLD=  1.50E-02 (SWITCH IN $DFT)
                   HF -> DFT SWITCH THRESHOLD=  5.00E-03 (SWOFF IN $DFT)

 DFT CODE IS SWITCHING FROM THE FINE GRID NRAD= 96,  NLEB=  302
                      TO THE COARSE GRID NRAD0= 24, NLEB0=  110

 ITER EX DEM     TOTAL ENERGY        E CHANGE  DENSITY CHANGE    DIIS ERROR
          * * *   INITIATING DIIS PROCEDURE   * * *
   1  0  0     -184.9510750984  -184.9510750984   0.169373768   0.103829862
   2  1  0     -184.9862959092    -0.0352208108   0.135082844   0.106054931
   3  2  0     -184.9706103566     0.0156855526   0.095523663   0.153100639
   4  3  0     -185.0060611133    -0.0354507567   0.021387658   0.025565306
   5  4  0     -185.0077544644    -0.0016933511   0.012682582   0.008220417
 DFT CODE IS SWITCHING BACK TO THE FINE GRID
          * * *   INITIATING DIIS PROCEDURE   * * *
   6  5  0     -185.0089142607    -0.0011597963   0.009909138   0.002074088
   7  6  0     -185.0089004642     0.0000137965   0.003932722   0.003971706
   8  7  0     -185.0089224838    -0.0000220196   0.001235003   0.000730776
   9  8  0     -185.0089228692    -0.0000003854   0.000404109   0.000738770
  10  9  0     -185.0089235928    -0.0000007236   0.000114102   0.000180274
  11 10  0     -185.0089236503    -0.0000000575   0.000007163   0.000003939
  12 11  0     -185.0089236504    -0.0000000001   0.000001793   0.000002328

          -----------------
          DENSITY CONVERGED
          -----------------
     TIME TO FORM FOCK OPERATORS=       2.2 SECONDS (       0.2 SEC/ITER)
     TIME TO SOLVE SCF EQUATIONS=       0.0 SECONDS (       0.0 SEC/ITER)

 FINAL R-PBE ENERGY IS     -185.0089236504 AFTER  12 ITERATIONS
 DFT EXCHANGE + CORRELATION ENERGY =       -23.0377313797
 TOTAL ELECTRON NUMBER             =        24.0000173528
 ...... END OF RHF CALCULATION ......
 STEP CPU TIME =     2.22 TOTAL CPU TIME =         12.5 (      0.2 MIN)
 TOTAL WALL CLOCK TIME=         12.6 SECONDS, CPU UTILIZATION IS    98.89%
 ..... END OF 1-ELECTRON GRADIENT ......
 STEP CPU TIME =     0.00 TOTAL CPU TIME =         12.5 (      0.2 MIN)
 TOTAL WALL CLOCK TIME=         12.6 SECONDS, CPU UTILIZATION IS    98.81%
 MEMORY FOR GRID POINT CONTRIBUTIONS TO THE DFT GRADIENT=    199178 WORDS.
 STEP CPU TIME =     0.46 TOTAL CPU TIME =         12.9 (      0.2 MIN)
 TOTAL WALL CLOCK TIME=         13.1 SECONDS, CPU UTILIZATION IS    98.93%
 ...... END OF 2-ELECTRON GRADIENT ......
 STEP CPU TIME =     0.02 TOTAL CPU TIME =         12.9 (      0.2 MIN)
 TOTAL WALL CLOCK TIME=         13.1 SECONDS, CPU UTILIZATION IS    98.93%

          NSERCH=  4     ENERGY=    -185.0089237

                                 -----------------------
                                 GRADIENT (HARTREE/BOHR)
                                 -----------------------
        ATOM     ZNUC       DE/DX         DE/DY         DE/DZ
 --------------------------------------------------------------
    1  N            7.0    -0.1578387     0.1025627    -0.0498745
    2  N            7.0     0.0118431     0.1628001     0.0081396
    3  O            8.0     0.2436459    -0.1315558     0.0070683
    4  H            1.0     0.0000249    -0.1666340    -0.0023334
    5  H            1.0    -0.0976752     0.0328270     0.0370001

          MAXIMUM GRADIENT = 0.2436459    RMS GRADIENT = 0.1098816

 NSERCH:   4  E=     -185.0089236504  GRAD. MAX=  0.2436459  R.M.S.=  0.1098816

          HESSIAN UPDATED USING THE BFGS FORMULA
             ACTUAL ENERGY CHANGE WAS  -0.2795245232
          PREDICTED ENERGY CHANGE WAS  -0.3567786863 RATIO=  0.783
          MIN SEARCH, CORRECT HESSIAN, TRYING PURE NR STEP
               NR STEP HAS LENGTH         =  11.966391
          TRIM/QA LAMBDA FOR NON-TS MODES =  -0.21091690
          TRIM/QA STEP HAS LENGTH         =   0.500000
          RADIUS OF STEP TAKEN=   0.50000  CURRENT TRUST RADIUS=   0.50000

 BEGINNING GEOMETRY SEARCH POINT NSERCH=   5 ...

 COORDINATES OF ALL ATOMS ARE (ANGS)
   ATOM   CHARGE       X              Y              Z
 ------------------------------------------------------------
 N           7.0   0.9209446265  -0.0470469727   0.4025849263
 N           7.0  -0.2591724098  -0.5286855876  -0.0503806636
 O           8.0  -1.0526466199   0.3703483628   0.0040214616
 H           1.0   0.7057116818   0.9970101473   0.1087403324
 H           1.0   1.4625214925  -0.3717332774  -0.4501254603

          INTERNUCLEAR DISTANCES (ANGS.)
          ------------------------------

                1 N          2 N          3 O          4 H          5 H     

   1 N       0.0000000    1.3527120 *  2.0562427 *  1.1057690 *  1.0610569 *
   2 N       1.3527120 *  0.0000000    1.2003428 *  1.8121998 *  1.7744463 *
   3 O       2.0562427 *  1.2003428 *  0.0000000    1.8696243 *  2.6613916 *
   4 H       1.1057690 *  1.8121998 *  1.8696243 *  0.0000000    1.6608885 *
   5 H       1.0610569 *  1.7744463 *  2.6613916 *  1.6608885 *  0.0000000  

  * ... LESS THAN  3.000

 ...... END OF ONE-ELECTRON INTEGRALS ......
 STEP CPU TIME =     0.00 TOTAL CPU TIME =         12.9 (      0.2 MIN)
 TOTAL WALL CLOCK TIME=         13.1 SECONDS, CPU UTILIZATION IS    98.85%
 TOTAL NUMBER OF NONZERO TWO-ELECTRON INTEGRALS =              116936
          8 INTEGRAL RECORDS WERE STORED ON DISK FILE  8.
  ...... END OF TWO-ELECTRON INTEGRALS .....
 STEP CPU TIME =     0.01 TOTAL CPU TIME =         12.9 (      0.2 MIN)
 TOTAL WALL CLOCK TIME=         13.1 SECONDS, CPU UTILIZATION IS    98.85%

          --------------------------
               R-PBE SCF CALCULATION
          --------------------------
         DENSITY MATRIX CONVERGENCE THRESHOLD=  5.00E-04
     COARSE -> FINE DFT GRID SWITCH THRESHOLD=  1.50E-02 (SWITCH IN $DFT)
                   HF -> DFT SWITCH THRESHOLD=  5.00E-03 (SWOFF IN $DFT)

 DFT CODE IS SWITCHING FROM THE FINE GRID NRAD= 96,  NLEB=  302
                      TO THE COARSE GRID NRAD0= 24, NLEB0=  110

 ITER EX DEM     TOTAL ENERGY        E CHANGE  DENSITY CHANGE    DIIS ERROR
          * * *   INITIATING DIIS PROCEDURE   * * *
   1  0  0     -184.9986134450  -184.9986134450   0.252838529   0.099823260
   2  1  0     -185.0150986355    -0.0164851906   0.137671070   0.146342537
   3  2  0     -185.0126091544     0.0024894812   0.083181667   0.176813798
   4  3  0     -185.0577320599    -0.0451229055   0.029866658   0.044113374
   5  4  0     -185.0611296127    -0.0033975528   0.014991907   0.011453910
 DFT CODE IS SWITCHING BACK TO THE FINE GRID
          * * *   INITIATING DIIS PROCEDURE   * * *
   6  5  0     -185.0624698296    -0.0013402169   0.006792597   0.002023417
   7  6  0     -185.0624421776     0.0000276520   0.003988492   0.004327468
   8  7  0     -185.0624815014    -0.0000393238   0.001667295   0.001968739
   9  8  0     -185.0624862985    -0.0000047971   0.000485205   0.000976769
  10  9  0     -185.0624874323    -0.0000011338   0.000224872   0.000376065
  11 10  0     -185.0624877630    -0.0000003307   0.000016033   0.000013580
  12 11  0     -185.0624877637    -0.0000000007   0.000002009   0.000002156

          -----------------
          DENSITY CONVERGED
          -----------------
     TIME TO FORM FOCK OPERATORS=       2.2 SECONDS (       0.2 SEC/ITER)
     TIME TO SOLVE SCF EQUATIONS=       0.0 SECONDS (       0.0 SEC/ITER)

 FINAL R-PBE ENERGY IS     -185.0624877637 AFTER  12 ITERATIONS
 DFT EXCHANGE + CORRELATION ENERGY =       -22.7868701878
 TOTAL ELECTRON NUMBER             =        24.0000233309
 ...... END OF RHF CALCULATION ......
 STEP CPU TIME =     2.21 TOTAL CPU TIME =         15.2 (      0.3 MIN)
 TOTAL WALL CLOCK TIME=         15.3 SECONDS, CPU UTILIZATION IS    98.89%
 ..... END OF 1-ELECTRON GRADIENT ......
 STEP CPU TIME =     0.00 TOTAL CPU TIME =         15.2 (      0.3 MIN)
 TOTAL WALL CLOCK TIME=         15.3 SECONDS, CPU UTILIZATION IS    98.89%
 MEMORY FOR GRID POINT CONTRIBUTIONS TO THE DFT GRADIENT=    199178 WORDS.
 STEP CPU TIME =     0.45 TOTAL CPU TIME =         15.6 (      0.3 MIN)
 TOTAL WALL CLOCK TIME=         15.8 SECONDS, CPU UTILIZATION IS    98.86%
 ...... END OF 2-ELECTRON GRADIENT ......
 STEP CPU TIME =     0.02 TOTAL CPU TIME =         15.6 (      0.3 MIN)
 TOTAL WALL CLOCK TIME=         15.8 SECONDS, CPU UTILIZATION IS    98.86%

          NSERCH=  5     ENERGY=    -185.0624878

                                 -----------------------
                                 GRADIENT (HARTREE/BOHR)
                                 -----------------------
        ATOM     ZNUC       DE/DX         DE/DY         DE/DZ
 --------------------------------------------------------------
    1  N            7.0    -0.0831433    -0.0370355     0.0494762
    2  N            7.0     0.0240694     0.0876691    -0.0029136
    3  O            8.0     0.1158307    -0.0617395     0.0105387
    4  H            1.0    -0.0227812     0.0005319    -0.0355209
    5  H            1.0    -0.0339756     0.0105741    -0.0215804

          MAXIMUM GRADIENT = 0.1158307    RMS GRADIENT = 0.0515483

 NSERCH:   5  E=     -185.0624877637  GRAD. MAX=  0.1158307  R.M.S.=  0.0515483

          HESSIAN UPDATED USING THE BFGS FORMULA
             ACTUAL ENERGY CHANGE WAS  -0.0535641133
          PREDICTED ENERGY CHANGE WAS  -0.0846241721 RATIO=  0.633
          MIN SEARCH, CORRECT HESSIAN, TRYING PURE NR STEP
               NR STEP HAS LENGTH         =   5.301981
          TRIM/QA LAMBDA FOR NON-TS MODES =  -0.21405237
          TRIM/QA STEP HAS LENGTH         =   0.500000
          RADIUS OF STEP TAKEN=   0.50000  CURRENT TRUST RADIUS=   0.50000

 BEGINNING GEOMETRY SEARCH POINT NSERCH=   6 ...

 COORDINATES OF ALL ATOMS ARE (ANGS)
   ATOM   CHARGE       X              Y              Z
 ------------------------------------------------------------
 N           7.0   0.9554112618   0.0040940380   0.2645293896
 N           7.0  -0.3012662995  -0.5502821121  -0.0222484233
 O           8.0  -1.1858757390   0.3864785454   0.0055658114
 H           1.0   0.7298369773   1.0194248425   0.1839346884
 H           1.0   1.5792525705  -0.4398226414  -0.4169408697

          INTERNUCLEAR DISTANCES (ANGS.)
          ------------------------------

                1 N          2 N          3 O          4 H          5 H     

   1 N       0.0000000    1.4031439 *  2.1905228 *  1.0432046 *  1.0250082 *
   2 N       1.4031439 *  0.0000000    1.2887312 *  1.8893558 *  1.9246648 *
   3 O       2.1905228 *  1.2887312 *  0.0000000    2.0254362 *  2.9167139 *
   4 H       1.0432046 *  1.8893558 *  2.0254362 *  0.0000000    1.7921946 *
   5 H       1.0250082 *  1.9246648 *  2.9167139 *  1.7921946 *  0.0000000  

  * ... LESS THAN  3.000

 ...... END OF ONE-ELECTRON INTEGRALS ......
 STEP CPU TIME =     0.00 TOTAL CPU TIME =         15.6 (      0.3 MIN)
 TOTAL WALL CLOCK TIME=         15.8 SECONDS, CPU UTILIZATION IS    98.86%
 TOTAL NUMBER OF NONZERO TWO-ELECTRON INTEGRALS =              115375
          8 INTEGRAL RECORDS WERE STORED ON DISK FILE  8.
  ...... END OF TWO-ELECTRON INTEGRALS .....
 STEP CPU TIME =     0.02 TOTAL CPU TIME =         15.6 (      0.3 MIN)
 TOTAL WALL CLOCK TIME=         15.8 SECONDS, CPU UTILIZATION IS    98.86%

          --------------------------
               R-PBE SCF CALCULATION
          --------------------------
         DENSITY MATRIX CONVERGENCE THRESHOLD=  2.00E-04
     COARSE -> FINE DFT GRID SWITCH THRESHOLD=  6.00E-03 (SWITCH IN $DFT)
                   HF -> DFT SWITCH THRESHOLD=  5.00E-03 (SWOFF IN $DFT)

 DFT CODE IS SWITCHING FROM THE FINE GRID NRAD= 96,  NLEB=  302
                      TO THE COARSE GRID NRAD0= 24, NLEB0=  110

 ITER EX DEM     TOTAL ENERGY        E CHANGE  DENSITY CHANGE    DIIS ERROR
          * * *   INITIATING DIIS PROCEDURE   * * *
   1  0  0     -185.0786571597  -185.0786571597   0.123011520   0.048448087
   2  1  0     -185.0976077393    -0.0189505796   0.070226126   0.050536207
   3  2  0     -185.0803252397     0.0172824996   0.071655057   0.140886176
   4  3  0     -185.1013386169    -0.0210133772   0.022238375   0.047880754
   5  4  0     -185.1047534602    -0.0034148433   0.009195699   0.006822394
   6  5  0     -185.1049314982    -0.0001780380   0.002680970   0.001216822
 DFT CODE IS SWITCHING BACK TO THE FINE GRID
          * * *   INITIATING DIIS PROCEDURE   * * *
   7  6  0     -185.1067976560    -0.0018661579   0.002550722   0.000939165
   8  7  0     -185.1067856739     0.0000119821   0.001886046   0.003662707
   9  8  0     -185.1068002327    -0.0000145588   0.000397864   0.000744770
  10  9  0     -185.1068006622    -0.0000004295   0.000312823   0.000577173
  11 10  0     -185.1068010887    -0.0000004265   0.000071307   0.000061305
  12 11  0     -185.1068010981    -0.0000000094   0.000015661   0.000010283
  13 12  0     -185.1068010985    -0.0000000004   0.000001545   0.000001630

          -----------------
          DENSITY CONVERGED
          -----------------
     TIME TO FORM FOCK OPERATORS=       2.2 SECONDS (       0.2 SEC/ITER)
     TIME TO SOLVE SCF EQUATIONS=       0.0 SECONDS (       0.0 SEC/ITER)

 FINAL R-PBE ENERGY IS     -185.1068010985 AFTER  13 ITERATIONS
 DFT EXCHANGE + CORRELATION ENERGY =       -22.7165189278
 TOTAL ELECTRON NUMBER             =        24.0000106024
 ...... END OF RHF CALCULATION ......
 STEP CPU TIME =     2.21 TOTAL CPU TIME =         17.9 (      0.3 MIN)
[...]
 H           1.0   1.6942728004  -0.5083346567  -0.2097837940

          INTERNUCLEAR DISTANCES (ANGS.)
          ------------------------------

                1 N          2 N          3 O          4 H          5 H     

   1 N       0.0000000    1.4036664 *  2.2397774 *  1.0401162 *  1.0288926 *
   2 N       1.4036664 *  0.0000000    1.2830258 *  2.1223416 *  2.0805488 *
   3 O       2.2397774 *  1.2830258 *  0.0000000    2.4358321 *  3.1637292  
   4 H       1.0401162 *  2.1223416 *  2.4358321 *  0.0000000    1.8219984 *
   5 H       1.0288926 *  2.0805488 *  3.1637292    1.8219984 *  0.0000000  

  * ... LESS THAN  3.000


          NUCLEAR ENERGY    =       68.8543652318
          ELECTRONIC ENERGY =     -253.9794963605
          TOTAL ENERGY      =     -185.1251311287

          ------------------
          MOLECULAR ORBITALS
          ------------------

                      1          2          3          4          5
                  -18.7866   -14.1224   -14.0638    -1.0569    -0.8561
                     A          A          A          A          A   
    1  N  1  S   -0.000031  -0.003273   0.984390   0.083085   0.242509
    2  N  1  S    0.000263  -0.001586   0.055525  -0.152571  -0.448386
    3  N  1  S    0.001513   0.007897  -0.035878  -0.059551  -0.284455
    4  N  1  X   -0.000372   0.000692  -0.000182   0.054778   0.028864
    5  N  1  Y    0.000085   0.000223  -0.000131   0.014137   0.029968
    6  N  1  Z    0.000040   0.000019  -0.000017   0.000616   0.005659
    7  N  1  X    0.000386  -0.002713   0.001336   0.024262   0.017493
    8  N  1  Y   -0.000191  -0.000311   0.000513   0.008952   0.017955
    9  N  1  Z   -0.000066   0.000063   0.000048   0.000914   0.003306
   10  N  2  S   -0.000302   0.984882   0.003983   0.192514   0.043648
   11  N  2  S    0.001195   0.051750  -0.000977  -0.357844  -0.079276
   12  N  2  S   -0.010017  -0.025653   0.006649  -0.135403  -0.084018
   13  N  2  X   -0.000323   0.000401  -0.000553   0.054825  -0.182398
   14  N  2  Y    0.000454   0.003178  -0.000377  -0.130183   0.002002
   15  N  2  Z    0.000128   0.000759  -0.000064  -0.034732   0.009809
   16  N  2  X    0.003693  -0.002738   0.001960  -0.001230  -0.102126
   17  N  2  Y   -0.003810  -0.004080   0.001090  -0.075682  -0.024858
   18  N  2  Z   -0.001123  -0.000860   0.000167  -0.018502  -0.000873
   19  O  3  S   -0.984519   0.000403   0.000033   0.200041  -0.137488
   20  O  3  S   -0.052103  -0.001163  -0.000358  -0.361839   0.250727
   21  O  3  S    0.027127   0.004182  -0.000024  -0.253923   0.230288
   22  O  3  X   -0.002246  -0.000543  -0.000247  -0.116810   0.037535
   23  O  3  Y    0.001544   0.000417  -0.000064   0.080995  -0.048191
   24  O  3  Z    0.000493   0.000130  -0.000003   0.025837  -0.013739
   25  O  3  X    0.005169  -0.000114   0.000765  -0.096893   0.055274
   26  O  3  Y   -0.003845   0.000939   0.000268   0.069810  -0.044599
   27  O  3  Z   -0.001207   0.000236   0.000026   0.022073  -0.013765
   28  H  4  S    0.000460  -0.000651  -0.001036  -0.027783  -0.103106
   29  H  4  S   -0.001289  -0.000377   0.007137   0.001347  -0.007968
   30  H  5  S   -0.000443  -0.000200  -0.001243  -0.019162  -0.118744
   31  H  5  S    0.000005   0.000377   0.007283  -0.004258  -0.006034

                      6          7          8          9         10
                   -0.6217    -0.5188    -0.4443    -0.4042    -0.3352
                     A          A          A          A          A   
    1  N  1  S    0.101139  -0.002794  -0.014744   0.000131  -0.002182
    2  N  1  S   -0.192034   0.004754   0.023565  -0.000270   0.005407
    3  N  1  S   -0.200005  -0.003397   0.026561  -0.000212  -0.023902
    4  N  1  X   -0.234884  -0.190005  -0.166341   0.010057   0.030797
    5  N  1  Y   -0.135841   0.315323  -0.098929  -0.049503  -0.101729
    6  N  1  Z   -0.021582   0.086913  -0.016012   0.201726  -0.026437
    7  N  1  X   -0.201723  -0.181842  -0.189631   0.011865   0.034320
    8  N  1  Y   -0.127128   0.317494  -0.093021  -0.058427  -0.067248
    9  N  1  Z   -0.021148   0.087026  -0.013415   0.237975  -0.018166
   10  N  2  S   -0.170541   0.016750   0.103311   0.000023   0.081893
   11  N  2  S    0.333316  -0.032655  -0.215671  -0.000060  -0.149311
   12  N  2  S    0.272218  -0.010982  -0.196092  -0.000044  -0.236768
   13  N  2  X    0.142259   0.009471   0.277314   0.017758  -0.035801
   14  N  2  Y    0.025880   0.097741   0.035479  -0.083901   0.331766
   15  N  2  Z   -0.000995   0.023425  -0.005722   0.342380   0.083162
   16  N  2  X    0.088272   0.009605   0.206855   0.018770   0.006267
   17  N  2  Y    0.039667   0.091960   0.042183  -0.089153   0.341227
   18  N  2  Z    0.005199   0.022002  -0.000457   0.363830   0.083318
   19  O  3  S    0.129026   0.037576  -0.139834  -0.000059   0.036713
   20  O  3  S   -0.233979  -0.069306   0.254464   0.000107  -0.060716
   21  O  3  S   -0.287555  -0.097184   0.367548   0.000150  -0.126206
   22  O  3  X    0.041772   0.056883  -0.145055   0.013313   0.338004
   23  O  3  Y   -0.018607   0.025477   0.263551  -0.063879   0.049763
   24  O  3  Z   -0.006719   0.003312   0.071916   0.261414  -0.005152
   25  O  3  X    0.006322   0.044190  -0.128833   0.013999   0.355084
   26  O  3  Y   -0.007483   0.036428   0.249742  -0.067182   0.069371
   27  O  3  Z   -0.002185   0.006650   0.067694   0.274910  -0.001224
   28  H  4  S   -0.160105   0.224992  -0.075405   0.000001  -0.119853
   29  H  4  S   -0.039338   0.084899  -0.012963   0.000047  -0.070817
   30  H  5  S   -0.139920  -0.252228  -0.047211  -0.000071   0.119051
   31  H  5  S   -0.030400  -0.094291  -0.029786  -0.000048   0.074077

                     11         12         13         14         15
                   -0.2595    -0.1971    -0.1040     0.0160     0.0779
                     A          A          A          A          A   
    1  N  1  S    0.000244   0.076797   0.000158  -0.155817  -0.003327
    2  N  1  S   -0.000496  -0.152682  -0.000283   0.271042   0.008220
    3  N  1  S   -0.000561  -0.367720  -0.000758   1.421660   0.023852
    4  N  1  X    0.019625   0.152427   0.011890   0.122753   0.091910
    5  N  1  Y   -0.095143   0.061986  -0.058084   0.035957  -0.312941
    6  N  1  Z    0.388077   0.007204   0.236608   0.003160  -0.081406
    7  N  1  X    0.025834   0.203257   0.017555   0.232902   0.209661
    8  N  1  Y   -0.125609   0.094728  -0.086107   0.065581  -0.730771
    9  N  1  Z    0.512274   0.012481   0.350508   0.005487  -0.189819
   10  N  2  S   -0.000079  -0.091385  -0.000018   0.010440   0.035054
   11  N  2  S    0.000167   0.164882   0.000060  -0.016888  -0.065441
   12  N  2  S    0.000098   0.404546  -0.000117  -0.108494  -0.313436
   13  N  2  X   -0.000764  -0.006735  -0.021680  -0.105905   0.035504
   14  N  2  Y    0.004163  -0.216944   0.104267  -0.106963  -0.038756
   15  N  2  Z   -0.017330  -0.052913  -0.424969  -0.021013  -0.011283
   16  N  2  X   -0.001912   0.075270  -0.027809  -0.164328   0.079480
   17  N  2  Y    0.009235  -0.199321   0.133242  -0.160788  -0.131688
   18  N  2  Z   -0.038220  -0.052798  -0.543267  -0.031322  -0.036313
   19  O  3  S   -0.000004   0.012242   0.000006  -0.009708  -0.019548
   20  O  3  S    0.000005  -0.032181  -0.000012   0.021013   0.042141
   21  O  3  S    0.000038  -0.002026  -0.000003   0.040512   0.154691
   22  O  3  X   -0.016886   0.226265   0.016862   0.080928   0.087803
   23  O  3  Y    0.081002   0.374169  -0.081163   0.088038  -0.089741
   24  O  3  Z   -0.329601   0.080301   0.330752   0.017574  -0.026572
   25  O  3  X   -0.019431   0.283413   0.021834   0.116560   0.153933
   26  O  3  Y    0.093267   0.430236  -0.105057   0.110351  -0.160558
   27  O  3  Z   -0.379534   0.091149   0.428142   0.021272  -0.047323
   28  H  4  S    0.000179   0.061999   0.000231  -0.152245   0.149713
   29  H  4  S    0.000149   0.197780   0.000440  -0.920993   1.167787
   30  H  5  S    0.000138   0.032584   0.000250  -0.157601  -0.122335
   31  H  5  S    0.000154   0.101289   0.000355  -1.057655  -1.056460

                     16         17         18         19         20
                    0.1422     0.2251     0.5525     0.6574     0.7030
                     A          A          A          A          A   
    1  N  1  S   -0.086362  -0.021694  -0.066126   0.118346  -0.058633
    2  N  1  S    0.160214   0.054530   0.127339  -0.500480   0.256974
    3  N  1  S    0.736142   0.143671  -0.388639   0.247005  -0.011258
    4  N  1  X   -0.360530  -0.062622   0.081863  -0.012416  -0.126376
    5  N  1  Y   -0.109031  -0.127494   0.044247   0.153055   0.287609
    6  N  1  Z   -0.008370  -0.028108   0.007174   0.038025   0.076961
    7  N  1  X   -1.036747  -0.180579   0.562023   0.001556  -0.285165
    8  N  1  Y   -0.307443  -0.317913   0.227980   0.205913   0.193467
    9  N  1  Z   -0.022517  -0.068778   0.027854   0.050166   0.062022
   10  N  2  S    0.156862  -0.072145   0.137521   0.208991  -0.155773
   11  N  2  S   -0.377303   0.159318  -0.737279  -1.195509   0.888850
   12  N  2  S   -1.149864   0.574575   1.310394   1.640073  -1.354941
   13  N  2  X   -0.274939  -0.414645   0.002355   0.257055   0.119284
   14  N  2  Y   -0.303624   0.188625  -0.005189  -0.055498  -0.339028
   15  N  2  Z   -0.060343   0.067496  -0.001765  -0.026581  -0.089228
   16  N  2  X   -0.612167  -1.004604   0.104771  -0.145111   0.009295
   17  N  2  Y   -0.721955   0.507783   0.322588   0.257217  -0.161373
   18  N  2  Z   -0.145591   0.175969   0.073646   0.070510  -0.040058
   19  O  3  S   -0.029742   0.123000   0.024435   0.057821  -0.021083
   20  O  3  S    0.044314  -0.287580  -0.073749  -0.250593   0.043203
   21  O  3  S    0.343748  -0.835375  -0.339526  -0.288041   0.356553
   22  O  3  X    0.189962  -0.275565   0.020568   0.023427  -0.015098
   23  O  3  Y   -0.021731   0.260479  -0.050606  -0.112019  -0.092204
   24  O  3  Z   -0.015056   0.077952  -0.013453  -0.028661  -0.021844
   25  O  3  X    0.388989  -0.609856  -0.163293  -0.144760   0.164714
   26  O  3  Y   -0.051638   0.576067   0.063149   0.110395  -0.115586
   27  O  3  Z   -0.032593   0.172444   0.023848   0.034474  -0.036784
   28  H  4  S    0.008165  -0.109258  -0.895133  -0.130764  -0.889102
   29  H  4  S   -0.014088   0.396361   0.531704  -0.043285   0.708892
   30  H  5  S    0.022668   0.121405  -0.777759   0.839985   0.557413
   31  H  5  S    0.365298  -0.228634   0.360896  -0.749305  -0.272934

                     21         22
                    0.8638     0.9695
                     A          A   
    1  N  1  S   -0.306250   0.000413
    2  N  1  S    1.970434  -0.003090
    3  N  1  S   -3.998869   0.008037
    4  N  1  X   -0.050955  -0.039835
    5  N  1  Y    0.032640   0.197500
    6  N  1  Z    0.008922  -0.806172
    7  N  1  X    0.420355   0.030702
    8  N  1  Y    0.148815  -0.159931
    9  N  1  Z    0.015325   0.650657
   10  N  2  S    0.062178  -0.000115
   11  N  2  S   -0.453294   0.000922
   12  N  2  S    1.921802  -0.005547
   13  N  2  X    0.110709  -0.029439
   14  N  2  Y    0.120386   0.140347
   15  N  2  Z    0.023371  -0.574989
   16  N  2  X    0.376049   0.020737
   17  N  2  Y    0.426103  -0.105700
   18  N  2  Z    0.085447   0.425699
   19  O  3  S   -0.008906   0.000351
   20  O  3  S    0.079017  -0.001893
   21  O  3  S   -0.510455   0.003292
   22  O  3  X    0.104475  -0.005480
   23  O  3  Y    0.049476   0.025100
   24  O  3  Z    0.006615  -0.104057
   25  O  3  X   -0.234160   0.000209
   26  O  3  Y    0.071124   0.002808
   27  O  3  Z    0.029461  -0.012326
   28  H  4  S    0.171819  -0.000223
   29  H  4  S    0.833702  -0.002191
   30  H  5  S    0.264895  -0.000668
   31  H  5  S    0.672343  -0.000935

     ---------------------------------------------------------------------
     PROPERTIES FOR THE PBE      DFT FUNCTIONAL (RHF  TYPE) DENSITY MATRIX
     ---------------------------------------------------------------------

          -----------------
          ENERGY COMPONENTS
          -----------------

         WAVEFUNCTION NORMALIZATION =       1.0000000000

                ONE ELECTRON ENERGY =    -388.3992111957
                TWO ELECTRON ENERGY =     134.4197148352
           NUCLEAR REPULSION ENERGY =      68.8543652318
                                      ------------------
                       TOTAL ENERGY =    -185.1251311287

 ELECTRON-ELECTRON POTENTIAL ENERGY =     134.4197148352
  NUCLEUS-ELECTRON POTENTIAL ENERGY =    -572.7505039486
   NUCLEUS-NUCLEUS POTENTIAL ENERGY =      68.8543652318
                                      ------------------
             TOTAL POTENTIAL ENERGY =    -369.4764238816
               TOTAL KINETIC ENERGY =     184.3512927529
                 VIRIAL RATIO (V/T) =       2.0041976292

          ---------------------------------------
          MULLIKEN AND LOWDIN POPULATION ANALYSES
          ---------------------------------------

     ATOMIC MULLIKEN POPULATION IN EACH MOLECULAR ORBITAL

                      1          2          3          4          5

                  2.000000   2.000000   2.000000   2.000000   2.000000

    1            -0.000008   0.001190   1.996763   0.172970   1.124727
    2             0.001909   1.998564   0.001042   0.809778   0.337937
    3             1.998083   0.000245   0.000005   1.007461   0.366594
    4             0.000017  -0.000012   0.001086   0.004934   0.075704
    5            -0.000000   0.000013   0.001104   0.004858   0.095038

                      6          7          8          9         10

                  2.000000   2.000000   2.000000   2.000000   2.000000

    1             0.846550   1.189497   0.259465   0.413557   0.055932
    2             0.556279   0.101452   0.570323   1.006525   0.989850
    3             0.321888   0.062307   1.129466   0.579918   0.841346
    4             0.162103   0.288490   0.024421  -0.000000   0.060531
    5             0.113180   0.358255   0.016325   0.000000   0.052341

                     11         12

                  2.000000   2.000000

    1             1.229452   0.145022
    2             0.000730   0.501632
    3             0.769818   1.245082
    4             0.000000   0.082342
    5             0.000000   0.025922

               ----- POPULATIONS IN EACH AO -----
                             MULLIKEN      LOWDIN
              1  N  1  S      1.98236     1.96309
              2  N  1  S      0.93623     0.80500
              3  N  1  S      0.56438     0.52966
              4  N  1  X      0.51663     0.50047
              5  N  1  Y      0.54314     0.52119
              6  N  1  Z      0.65929     0.66926
              7  N  1  X      0.57697     0.63767
              8  N  1  Y      0.69616     0.70082
              9  N  1  Z      0.95994     0.94409
             10  N  2  S      1.98499     1.96939
             11  N  2  S      1.04110     0.89981
             12  N  2  S      0.74475     0.67075
             13  N  2  X      0.46890     0.43827
             14  N  2  Y      0.62944     0.62122
             15  N  2  Z      0.42987     0.41563
             16  N  2  X      0.34349     0.50621
             17  N  2  Y      0.64225     0.77264
             18  N  2  Z      0.59124     0.61234
             19  O  3  S      1.98497     1.97102
             20  O  3  S      1.02853     0.96665
             21  O  3  S      0.96823     0.83708
             22  O  3  X      0.66005     0.65489
             23  O  3  Y      0.72530     0.72432
             24  O  3  Z      0.59444     0.59053
             25  O  3  X      0.76402     0.84818
             26  O  3  Y      0.83704     0.88920
             27  O  3  Z      0.75963     0.77389
             28  H  4  S      0.52294     0.50299
             29  H  4  S      0.17667     0.29190
             30  H  5  S      0.53406     0.51183
             31  H  5  S      0.13298     0.25997

          ----- MULLIKEN ATOMIC OVERLAP POPULATIONS -----
          (OFF-DIAGONAL ELEMENTS NEED TO BE MULTIPLIED BY 2)

             1           2           3           4           5

    1    7.0307881
    2    0.0251836   6.6312140
    3   -0.1057735   0.1933592   8.2084586
    4    0.2126800   0.0204736   0.0218767   0.4484136
    5    0.2722384   0.0057911   0.0042908  -0.0038289   0.3885436

          TOTAL MULLIKEN AND LOWDIN ATOMIC POPULATIONS
       ATOM         MULL.POP.    CHARGE          LOW.POP.     CHARGE
    1 N             7.435117   -0.435117         7.271262   -0.271262
    2 N             6.876022    0.123978         6.906272    0.093728
    3 O             8.322212   -0.322212         8.255769   -0.255769
    4 H             0.699615    0.300385         0.794891    0.205109
    5 H             0.667035    0.332965         0.771805    0.228195

          MULLIKEN SPHERICAL HARMONIC POPULATIONS
       ATOM           S       P       D      F      G      H      I    TOTAL
    1 N             3.48    3.95    0.00   0.00   0.00   0.00   0.00    7.44
    2 N             3.77    3.11    0.00   0.00   0.00   0.00   0.00    6.88
    3 O             3.98    4.34    0.00   0.00   0.00   0.00   0.00    8.32
    4 H             0.70    0.00    0.00   0.00   0.00   0.00   0.00    0.70
    5 H             0.67    0.00    0.00   0.00   0.00   0.00   0.00    0.67

          -------------------------------
          BOND ORDER AND VALENCE ANALYSIS     BOND ORDER THRESHOLD=0.050
          -------------------------------

                   BOND                       BOND                       BOND
  ATOM PAIR DIST  ORDER      ATOM PAIR DIST  ORDER      ATOM PAIR DIST  ORDER
    1   2  1.404  1.131        1   3  2.240  0.262        1   4  1.040  0.800
    1   5  1.029  0.829        2   3  1.283  1.599        2   4  2.122  0.051
    3   4  2.436  0.066

                       TOTAL       BONDED        FREE
      ATOM            VALENCE     VALENCE     VALENCE
    1 N                 3.023       3.023       0.000
    2 N                 2.790       2.790       0.000
    3 O                 1.965       1.965       0.000
    4 H                 0.917       0.917       0.000
    5 H                 0.875       0.875       0.000

          ---------------------
          ELECTROSTATIC MOMENTS
          ---------------------

 POINT   1           X           Y           Z (BOHR)    CHARGE
                -0.495535   -0.048607    0.013621        0.00 (A.U.)
         DX          DY          DZ         /D/  (DEBYE)
     3.714685    0.676949   -0.018948    3.775911
 ...... END OF PROPERTY EVALUATION ......
 STEP CPU TIME =     0.00 TOTAL CPU TIME =         62.7 (      1.0 MIN)
 TOTAL WALL CLOCK TIME=         63.7 SECONDS, CPU UTILIZATION IS    98.42%
  $VIB   
          IVIB=   0 IATOM=   0 ICOORD=   0 E=     -185.1251311287
  7.026509229E-05 1.263993392E-05-4.420289186E-05-1.635184273E-06-3.477691446E-05
  7.436333969E-06-1.374485658E-05 2.404073817E-05 3.066963890E-06-1.212180725E-05
 -3.038402200E-05 1.131361111E-05-4.276324419E-05 2.848026437E-05 2.238598289E-05
  3.714684856E+00 6.769489807E-01-1.894812807E-02
 ......END OF GEOMETRY SEARCH......
 STEP CPU TIME =     0.00 TOTAL CPU TIME =         62.7 (      1.0 MIN)
 TOTAL WALL CLOCK TIME=         63.8 SECONDS, CPU UTILIZATION IS    98.40%
                580000  WORDS OF DYNAMIC MEMORY USED
 EXECUTION OF GAMESS TERMINATED NORMALLY Fri Oct  4 00:54:34 2019
 DDI: 263640 bytes (0.3 MB / 0 MWords) used by master data server.

 ----------------------------------------
 CPU timing information for all processes
 ========================================
 0: 62.396 + 0.348 = 62.744
 ----------------------------------------
 ddikick.x: exited gracefully.
----- accounting info -----
Files used on the master node d12chas540.crc.nd.edu were:
-rw-r--r-- 1 wschnei1 campus 207423 Oct  4 00:54 /scratch365/wschnei1/opt-cart.F07
Fri Oct  4 00:54:37 EDT 2019
0.441u 0.375s 1:07.50 1.2%	0+0k 0+440io 0pf+0w
