----- GAMESS execution script 'rungms' -----
This job is running on host d12chas540.crc.nd.edu
under operating system Linux at Fri Oct 4 00:47:47 EDT 2019
SGE has assigned the following compute nodes to this run:
Available scratch disk space (Kbyte units) at beginning of the job is
Filesystem      1K-blocks     Used  Available Use% Mounted on
/dev/sda2      1949705068 49612356 1900092712   3% /
GAMESS temporary binary files will be written to /tmp/471499.1.debug
GAMESS supplementary output files will be written to /afs/crc.nd.edu/user/w/wschnei1/scr
Copying input file opt-dlc.inp to your run's scratch directory...
reading your own /afs/crc.nd.edu/user/w/wschnei1/.gmsrc

 Distributed Data Interface kickoff program.
 Initiating 1 compute processes on 1 nodes to run the following command:
 /afs/crc.nd.edu/x86_64_linux/g/gamess/nov-2017/gamess/gamess.00.x opt-dlc 

          ******************************************************
          *         GAMESS VERSION = 11 NOV 2017 (R3)         *
          *             FROM IOWA STATE UNIVERSITY             *
          * M.W.SCHMIDT, K.K.BALDRIDGE, J.A.BOATZ, S.T.ELBERT, *
          *   M.S.GORDON, J.H.JENSEN, S.KOSEKI, N.MATSUNAGA,   *
          *          K.A.NGUYEN, S.J.SU, T.L.WINDUS,           *
          *       TOGETHER WITH M.DUPUIS, J.A.MONTGOMERY       *
          *         J.COMPUT.CHEM.  14, 1347-1363(1993)        *
          **************** 64 BIT INTEL VERSION ****************

  SINCE 1993, STUDENTS AND POSTDOCS WORKING AT IOWA STATE UNIVERSITY
  AND ALSO IN THEIR VARIOUS JOBS AFTER LEAVING ISU HAVE MADE IMPORTANT
  CONTRIBUTIONS TO THE CODE:
     IVANA ADAMOVIC, CHRISTINE AIKENS, YURI ALEXEEV, POOJA ARORA,
     ANDREY ASADCHEV, ROB BELL, PRADIPTA BANDYOPADHYAY, JONATHAN BENTZ,
     BRETT BODE, KURT BRORSEN, CALEB CARLIN, GALINA CHABAN, WEI CHEN,
     CHEOL HO CHOI, PAUL DAY, ALBERT DEFUSCO, NUWAN DESILVA, TIM DUDLEY,
     DMITRI FEDOROV, ALEX FINDLATER, GRAHAM FLETCHER, MARK FREITAG,
     KURT GLAESEMANN, ANASTASIA GUININA,
     DAN KEMP, GRANT MERRILL, NORIYUKI MINEZAWA, JONATHAN MULLIN,
     TAKESHI NAGATA, SEAN NEDD, HEATHER NETZLOFF, BOSILJKA NJEGIC, RYAN OLSON,
     MIKE PAK, BUU PHAM,
     SPENCER PRUITT, LUKE ROSKOP, JIM SHOEMAKER, LYUDMILA SLIPCHENKO,
     TONY SMITH, SAROM SOK LEANG, JIE SONG, TETSUYA TAKETSUGU, SIMON WEBB,
     PENG XU, SOOHAENG YOO, FEDERICO ZAHARIEV

  ADDITIONAL CODE HAS BEEN PROVIDED BY COLLABORATORS IN OTHER GROUPS:
     IOWA STATE UNIVERSITY:
          JOE IVANIC, AARON WEST, LAIMUTIS BYTAUTAS, KLAUS RUEDENBERG
     UNIVERSITY OF TOKYO: KIMIHIKO HIRAO, TAKAHITO NAKAJIMA,
          TAKAO TSUNEDA, MUNEAKI KAMIYA, SUSUMU YANAGISAWA,
          KIYOSHI YAGI, MAHITO CHIBA, SEIKEN TOKURA, NAOAKI KAWAKAMI
     UNIVERSITY OF AARHUS: FRANK JENSEN
     UNIVERSITY OF IOWA: VISVALDAS KAIRYS, HUI LI
     NATIONAL INST. OF STANDARDS AND TECHNOLOGY: WALT STEVENS, DAVID GARMER
     UNIVERSITY OF PISA: BENEDETTA MENNUCCI, JACOPO TOMASI
     UNIVERSITY OF MEMPHIS: HENRY KURTZ, PRAKASHAN KORAMBATH
     UNIVERSITY OF ALBERTA: TOBY ZENG, MARIUSZ KLOBUKOWSKI
     UNIVERSITY OF NEW ENGLAND: MARK SPACKMAN
     MIE UNIVERSITY: HIROAKI UMEDA
     NAT. INST. OF ADVANCED INDUSTRIAL SCIENCE AND TECHNOLOGY: KAZUO KITAURA
     MICHIGAN STATE UNIVERSITY:
          KAROL KOWALSKI, MARTA WLOCH, JEFFREY GOUR, JESSE LUTZ,
          WEI LI, PIOTR PIECUCH
     UNIVERSITY OF SILESIA: MONIKA MUSIAL, STANISLAW KUCHARSKI
     FACULTES UNIVERSITAIRES NOTRE-DAME DE LA PAIX:
          OLIVIER QUINET, BENOIT CHAMPAGNE
     UNIVERSITY OF CALIFORNIA - SANTA BARBARA: BERNARD KIRTMAN
     INSTITUTE FOR MOLECULAR SCIENCE:
          KAZUYA ISHIMURA, MICHIO KATOUDA, AND SHIGERU NAGASE
     UNIVERSITY OF NOTRE DAME: ANNA POMOGAEVA, DAN CHIPMAN
     KYUSHU UNIVERSITY:
          HARUYUKI NAKANO,
          FENG LONG GU, JACEK KORCHOWIEC, MARCIN MAKOWSKI, AND YURIKO AOKI,
          HIROTOSHI MORI AND EISAKU MIYOSHI
     PENNSYLVANIA STATE UNIVERSITY:
          TZVETELIN IORDANOV, CHET SWALINA, JONATHAN SKONE,
          SHARON HAMMES-SCHIFFER
     WASEDA UNIVERSITY:
          MASATO KOBAYASHI, TOMOKO AKAMA, TSUGUKI TOUMA,
          TAKESHI YOSHIKAWA, YASUHIRO IKABATA, JUNJI SEINO,
          YUYA NAKAJIMA, HIROMI NAKAI
     NANJING UNIVERSITY: SHUHUA LI
     UNIVERSITY OF NEBRASKA:
          PEIFENG SU, DEJUN SI, NANDUN THELLAMUREGE, YALI WANG, HUI LI
     UNIVERSITY OF ZURICH: ROBERTO PEVERATI, KIM BALDRIDGE
     N. COPERNICUS UNIVERSITY AND JACKSON STATE UNIVERSITY:
          MARIA BARYSZ
     UNIVERSITY OF COPENHAGEN: Jimmy Kromann, CASPER STEINMANN
     TOKYO INSTITUTE OF TECHNOLOGY: HIROYA NAKATA
     NAGOYA UNIVERSITY: YOSHIO NISHIMOTO, STEPHAN IRLE
     MOSCOW STATE UNIVERSITY: VLADIMIR MIRONOV

 EXECUTION OF GAMESS BEGUN Fri Oct  4 00:47:48 2019

            ECHO OF THE FIRST FEW INPUT CARDS -
 INPUT CARD> $CONTRL SCFTYP=RHF DFTTYP=PBE RUNTYP=OPTIMIZE COORD=CART NZVAR=9 ISPHER=1 $END 
 INPUT CARD> $BASIS GBASIS=PCseg-0 $END                                                     
 INPUT CARD> $ZMAT DLC=.TRUE. AUTO=.TRUE. $END                                              
 INPUT CARD> $DATA                                                                          
 INPUT CARD>FCH2CH2F cartesian optimization calculation                                     
 INPUT CARD>C1                                                                              
 INPUT CARD>N 7 0.00000000 0.00000000 0.00000000                                            
 INPUT CARD>N 7 0.87068800 0.43708500 0.02898800                                            
 INPUT CARD>O 8 1.32984400 -0.10682200 -0.01102700                                          
 INPUT CARD>H 1 -0.01026300 -0.60188200 0.19954500                                          
 INPUT CARD>H 1 -0.37370800 0.29781100 -0.17504000                                          
 INPUT CARD> $END                                                                           
 INPUT CARD>                                                                                
    1000000 WORDS OF MEMORY AVAILABLE


                    * * * WARNING * * *
 OLD KEYWORD COORD=CART SELECTED, AUTOMATICALLY CHANGED TO COORD=PRINAXIS.
 YOUR MOLECULE'S COORDINATES WILL BE CHANGED TO PRINCIPAL AXES BY
   A) TRANSLATION TO THE CENTER OF MASS, THEN
   B) ROTATION TO HAVE A DIAGONAL MOMENT OF INERTIA TENSOR.

 HOWEVER, NOTHING ELSE IN YOUR INPUT WILL BE ROTATED IN THE SAME WAY,
 SO IF YOU HAVE A $VEC, $VIB, $GRAD, $HESS, EFP PARTICLE COORDINATES,
 OR ANYTHING ELSE THAT DEPENDS ON THE INITIAL ORIENTATION, THAT DATA
 WILL NOT BE USED CORRECTLY IN THIS RUN.

 THE PURPOSE OF COORD=PRINAXIS IS TO BE USED ONCE, ONLY AT THE VERY
 BEGINNING OF A SERIES OF COMPUTATIONS, PERHAPS TO FIND THE SYMMETRY
 UNIQUE ATOMS FROM AN ARBITRARY INITIAL ORIENTATION.

 AFTER THE FIRST RUN, YOU SHOULD USE ONLY COORD=UNIQUE, TO ENSURE THAT
 THE COORDINATES WHICH YOU READ IN ARE THE COORDINATES THAT ARE USED.


     BASIS OPTIONS
     -------------
     GBASIS=PCSEG-0      IGAUSS=       0      POLAR=NONE    
     NDFUNC=       0     NFFUNC=       0     DIFFSP=       F
     NPFUNC=       0      DIFFS=       F     BASNAM=        


     RUN TITLE
     ---------
 FCH2CH2F cartesian optimization calculation                                     

 THE POINT GROUP OF THE MOLECULE IS C1      
 THE ORDER OF THE PRINCIPAL AXIS IS     0

 THE MOMENTS OF INERTIA ARE (AMU-ANGSTROM**2)
 IXX=     3.029   IYY=    15.352   IZZ=    18.215

 ATOM      ATOMIC                      COORDINATES (BOHR)
           CHARGE         X                   Y                   Z
 N           7.0     1.3583047150        0.1685953864       -0.0104411146
 N           7.0    -0.2870572227       -0.6573750875        0.0443385223
 O           8.0    -1.1547360057        0.3704603580       -0.0312782124
 H           1.0     1.3776993952        1.3059873059        0.3666446504
 H           1.0     2.0645101773       -0.3941858676       -0.3412191850

          INTERNUCLEAR DISTANCES (ANGS.)
          ------------------------------

                1 N          2 N          3 O          4 H          5 H     

   1 N       0.0000000    0.9746698 *  1.3341730 *  0.6341810 *  0.5089087 *
   2 N       0.9746698 *  0.0000000    0.7129237 *  1.3728135 *  1.2686789 *
   3 O       1.3341730 *  0.7129237 *  0.0000000    1.4440609 *  1.7586124 *
   4 H       0.6341810 *  1.3728135 *  1.4440609 *  0.0000000    1.0401220 *
   5 H       0.5089087 *  1.2686789 *  1.7586124 *  1.0401220 *  0.0000000  

  * ... LESS THAN  3.000


     ATOMIC BASIS SET
     ----------------
 THE CONTRACTED PRIMITIVE FUNCTIONS HAVE BEEN UNNORMALIZED
 THE CONTRACTED BASIS FUNCTIONS ARE NOW NORMALIZED TO UNITY

  SHELL TYPE  PRIMITIVE        EXPONENT          CONTRACTION COEFFICIENT(S)

 N         

      1   S       1           653.2830000    0.018078595424
      1   S       2            98.6100000    0.125779429657
      1   S       3            22.0574000    0.439517743125
      1   S       4             5.8232400    0.554434931278

      2   S       5             0.6370840    1.000000000000

      3   S       6             0.1996370    1.000000000000

      4   P       7             6.3222700    0.219071861407
      4   P       8             1.2807600    0.875272129958

      5   P       9             0.2789500    1.000000000000

 N         

      6   S      10           653.2830000    0.018078595424
      6   S      11            98.6100000    0.125779429657
      6   S      12            22.0574000    0.439517743125
      6   S      13             5.8232400    0.554434931278

      7   S      14             0.6370840    1.000000000000

      8   S      15             0.1996370    1.000000000000

      9   P      16             6.3222700    0.219071861407
      9   P      17             1.2807600    0.875272129958

     10   P      18             0.2789500    1.000000000000

 O         

     11   S      19           864.9000000    0.017860101012
     11   S      20           130.5310000    0.124649763755
     11   S      21            29.2551000    0.438570969310
     11   S      22             7.7696500    0.555523812554

     12   S      23             0.8697880    1.000000000000

     13   S      24             0.2697830    1.000000000000

     14   P      25             8.3055300    0.227970846478
     14   P      26             1.6951600    0.868797957598

     15   P      27             0.3579510    1.000000000000

 H         

     16   S      28             4.3447300    0.167654352461
     16   S      29             0.6604870    0.896889788192

     17   S      30             0.1366870    1.000000000000

 H         

     18   S      31             4.3447300    0.167654352461
     18   S      32             0.6604870    0.896889788192

     19   S      33             0.1366870    1.000000000000

 TOTAL NUMBER OF BASIS SET SHELLS             =   19
 NUMBER OF CARTESIAN GAUSSIAN BASIS FUNCTIONS =   31
 NOTE: THIS RUN WILL RESTRICT THE MO VARIATION SPACE TO SPHERICAL HARMONICS.
 THE NUMBER OF ORBITALS KEPT IN THE VARIATIONAL SPACE WILL BE PRINTED LATER.
 NUMBER OF ELECTRONS                          =   24
 CHARGE OF MOLECULE                           =    0
 SPIN MULTIPLICITY                            =    1
 NUMBER OF OCCUPIED ORBITALS (ALPHA)          =   12
 NUMBER OF OCCUPIED ORBITALS (BETA )          =   12
 TOTAL NUMBER OF ATOMS                        =    5
 THE NUCLEAR REPULSION ENERGY IS      114.9672129547

     LEBEDEV GRID-BASED DFT OPTIONS
     ------------------------------
     DFTTYP=PBE     
     NRAD  =      96     NLEB  =     302
     NRAD0 =      24     NLEB0 =     110
     SWOFF =    5.00E-03 (PURE SCF -> DFT)
     SWITCH=    3.00E-04 (COARSE -> TIGHT GRID)
     THRESH=    0.00E+00 GTHRE=    1.00E+00

 GRIMME'S EMPIRICAL DISPERSION CORRECTION= F

     $CONTRL OPTIONS
     ---------------
 SCFTYP=RHF          RUNTYP=OPTIMIZE     EXETYP=RUN     
 MPLEVL=       0     CITYP =NONE         CCTYP =NONE         VBTYP =NONE    
 DFTTYP=PBE          TDDFT =NONE    
 MULT  =       1     ICHARG=       0     NZVAR =       9     COORD =PRINAXIS
 PP    =NONE         RELWFN=NONE         LOCAL =NONE         NUMGRD=       F
 ISPHER=       1     NOSYM =       0     MAXIT =      30     UNITS =ANGS    
 PLTORB=       F     MOLPLT=       F     AIMPAC=       F     FRIEND=        
 NPRINT=       7     IREST =       0     GEOM  =INPUT   
 NORMF =       0     NORMP =       0     ITOL  =      20     ICUT  =       9
 INTTYP=BEST         GRDTYP=BEST         QMTTOL= 1.0E-06

     $SYSTEM OPTIONS
     ---------------
  REPLICATED MEMORY=     1000000 WORDS (ON EVERY NODE).
 DISTRIBUTED MEMDDI=           0 MILLION WORDS IN AGGREGATE,
 MEMDDI DISTRIBUTED OVER   1 PROCESSORS IS           0 WORDS/PROCESSOR.
 TOTAL MEMORY REQUESTED ON EACH PROCESSOR=     1000000 WORDS.
 TIMLIM=      525600.00 MINUTES, OR     365.0 DAYS.
 PARALL= F  BALTYP=  DLB     KDIAG=    0  COREFL= F
 MXSEQ2=     300 MXSEQ3=     150  mem10=         0

          ----------------
          PROPERTIES INPUT
          ----------------

     MOMENTS            FIELD           POTENTIAL          DENSITY
 IEMOM =       1   IEFLD =       0   IEPOT =       0   IEDEN =       0
 WHERE =COMASS     WHERE =NUCLEI     WHERE =NUCLEI     WHERE =NUCLEI  
 OUTPUT=BOTH       OUTPUT=BOTH       OUTPUT=BOTH       OUTPUT=BOTH    
 IEMINT=       0   IEFINT=       0                     IEDINT=       0
                                                       MORB  =       0
          EXTRAPOLATION IN EFFECT
          DIIS IN EFFECT
 ORBITAL PRINTING OPTION: NPREO=     1    31     2     1

     -------------------------------
     INTEGRAL TRANSFORMATION OPTIONS
     -------------------------------
     NWORD  =            0
     CUTOFF = 1.0E-09     MPTRAN =       0
     DIRTRF =       F     AOINTS =DUP     

          ----------------------
          INTEGRAL INPUT OPTIONS
          ----------------------
 NOPK  =       1 NORDER=       0 SCHWRZ=       F
 
 
 -----------------------------------------------
  STATISTICS ON AUTOMATIC COORDINATE GENERATION 
 -----------------------------------------------
  NUMBER OF USER SPECIFIED BONDS                              0
  NUMBER OF BONDS                                             5
  NUMBER OF ANGLES                                            8
  NUMBER OF TORSIONS                                          4
  NUMBER OF EXTRA COORD.                                      0
  NUMBER OF EXTRA COORD. FOR CONSTRAINTS                      0
  NUMBER OF CONSTRAINED COORD.                                0
 
  TOTAL NUMBER OF PRIMITIVES                                 17
 -----------------------------------------------

   --- ENCODED Z MATRIX ---
 COORD  TYPE   I   J   K   L   M   N
    1      1    1   3
    2      1    1   2
    3      1    1   4
    4      1    1   5
    5      1    2   3
    6      2    1   2   3
    7      2    1   3   2
    8      2    2   1   5
    9      2    2   1   4
   10      2    2   1   3
   11      2    3   1   5
   12      2    3   1   4
   13      2    4   1   5
   14      3    2   3   1   4
   15      3    2   3   1   5
   16      3    3   2   1   5
   17      3    3   2   1   4

          INDEP./SYM. INTERNAL COORDINATES
          --------------------------------
 CRD  1=  -0.2648 (  1) -0.2726 (  2) -0.5797 (  3) -0.7128 (  4)
 CRD  2=  -0.6840 (  3)  0.5300 (  4)  0.2194 (  8) -0.2521 (  9)  0.2264 ( 11)
          -0.2568 ( 12)
 CRD  3=  -0.5436 (  1) -0.5335 (  2)  0.2739 (  3)  0.2252 (  4) -0.1019 (  6)
          -0.1219 (  8) -0.1875 (  9)  0.1522 ( 10) -0.3307 ( 12)  0.3094 ( 13)
 CRD  4=   0.3358 (  1) -0.4312 (  2)  0.4430 (  5)  0.4100 (  6) -0.4696 (  7)
          -0.1808 (  8)  0.1653 (  9) -0.1223 ( 11)  0.1254 ( 12)
 CRD  5=  -0.1801 (  1) -0.1557 (  2) -0.1096 (  3)  0.1422 (  4) -0.6690 (  5)
           0.4423 (  6) -0.1196 (  7) -0.3228 ( 10) -0.2388 ( 11)  0.2557 ( 12)
          -0.1043 ( 15)
 CRD  6=   0.2466 (  1)  0.2748 (  3) -0.3239 (  4)  0.3114 (  6) -0.1770 (  7)
           0.3308 (  8) -0.4036 (  9) -0.1344 ( 10)  0.2586 ( 11) -0.3254 ( 12)
          -0.1618 ( 14) -0.1518 ( 15) -0.1715 ( 16) -0.2810 ( 17)
 CRD  7=  -0.1462 (  4)  0.1104 (  8) -0.2541 (  9)  0.1437 ( 13)  0.6377 ( 14)
           0.6603 ( 17)
 CRD  8=  -0.2234 (  1) -0.2044 (  2)  0.2513 (  8)  0.2180 (  9)  0.4151 ( 11)
           0.1874 ( 12) -0.4693 ( 13) -0.3824 ( 15) -0.4163 ( 16)  0.1489 ( 17)
 CRD  9=  -0.1712 (  2)  0.1350 (  3)  0.3360 (  8)  0.1992 ( 11) -0.3871 ( 13)
           0.6972 ( 15)  0.3739 ( 16)

 THE DETERMINANT OF THE G MATRIX IS 10**(    -1)


                     --------------------
                     INTERNAL COORDINATES
                     --------------------

                 - - ATOMS - -         COORDINATE      COORDINATE
 NO.   TYPE    I  J  K  L  M  N        (BOHR,RAD)       (ANG,DEG)
 ----------------------------------------------------------------
   1 STRETCH   1  3                     2.5212214       1.3341730
   2 STRETCH   1  2                     1.8418588       0.9746698
   3 STRETCH   1  4                     1.1984282       0.6341810
   4 STRETCH   1  5                     0.9616980       0.5089087
   5 STRETCH   2  3                     1.3472305       0.7129237
   6 BEND      1  2  3                  1.8044552     103.3876684
   7 BEND      1  3  2                  0.7904790      45.2911103
   8 BEND      2  1  5                  1.9864551     113.8154923
   9 BEND      2  1  4                  2.0160683     115.5122034
  10 BEND      2  1  3                  0.5466584      31.3212213
  11 BEND      3  1  5                  2.4590334     140.8922362
  12 BEND      3  1  4                  1.5135079      86.7176128
  13 BEND      4  1  5                  2.2806620     130.6723043
  14 TORSION   2  3  1  4              -2.7495922    -157.5400287
  15 TORSION   2  3  1  5               0.6597795      37.8025820
  16 TORSION   3  2  1  5              -2.7052603    -154.9999984
  17 TORSION   3  2  1  4               0.4363334      25.0000613

     ------------------------------------------
     THE POINT GROUP IS C1 , NAXIS= 0, ORDER= 1
     ------------------------------------------

 -- VARIATIONAL SPACE WILL BE RESTRICTED TO PURE SPHERICAL HARMONICS ONLY --
 AFTER EXCLUDING CONTAMINANT COMBINATIONS FROM THE CARTESIAN GAUSSIAN BASIS
 SET, THE NUMBER OF SPHERICAL HARMONICS KEPT IN THE VARIATION SPACE IS   31

     DIMENSIONS OF THE SYMMETRY SUBSPACES ARE
 A   =   31

 ..... DONE SETTING UP THE RUN .....
 STEP CPU TIME =     0.02 TOTAL CPU TIME =          0.0 (      0.0 MIN)
 TOTAL WALL CLOCK TIME=          0.0 SECONDS, CPU UTILIZATION IS    50.00%


          -----------------------------
          STATIONARY POINT LOCATION RUN
          -----------------------------

 OBTAINING INITIAL HESSIAN, HESS=GUESS   
 DIAGONAL GUESS HESSIAN IN INTERNAL COORDS IS
     1  0.3786     2  0.8232     3  0.7333     4  0.9355     5  1.2669
     6  0.3201     7  0.2805     8  0.2786     9  0.2685    10  0.2648
    11  0.2461    12  0.2377    13  0.2494    14  0.2500    15  0.2500
    16  0.2500    17  0.2500
 TRANSFORMING HESSIAN TO SYMMETRY COORDINATES

          PARAMETERS CONTROLLING GEOMETRY SEARCH ARE
          METHOD =QA                  UPHESS =BFGS    
          NNEG   =         0          NFRZ   =         0
          NSTEP  =        50          IFOLOW =         1
          HESS   =GUESS               RESTAR =         F
          IHREP  =         0          HSSEND =         F
          NPRT   =         0          NPUN   =         0
          OPTTOL = 1.000E-04          RMIN   = 1.500E-03
          RMAX   = 1.000E-01          RLIM   = 7.000E-02
          DXMAX  = 3.000E-01          PURIFY =         F
          MOVIE  =         F          TRUPD  =         T
          TRMAX  = 5.000E-01          TRMIN  = 5.000E-02
          ITBMAT =         5          STPT   =         F
          STSTEP = 1.000E-02          PROJCT=          T

 BEGINNING GEOMETRY SEARCH POINT NSERCH=   0 ...

 COORDINATES OF ALL ATOMS ARE (ANGS)
   ATOM   CHARGE       X              Y              Z
 ------------------------------------------------------------
 N           7.0   0.7187839527   0.0892168428  -0.0055252003
 N           7.0  -0.1519041515  -0.3478679405   0.0234629372
 O           8.0  -0.6110600231   0.1960391932  -0.0165517184
 H           1.0   0.7290471762   0.6910987701   0.1940200076
 H           1.0   1.0924918166  -0.2085941931  -0.1805654297


                     --------------------
                     INTERNAL COORDINATES
                     --------------------

                 - - ATOMS - -         COORDINATE      COORDINATE
 NO.   TYPE    I  J  K  L  M  N        (BOHR,RAD)       (ANG,DEG)
 ----------------------------------------------------------------
   1 STRETCH   1  3                     2.5212214       1.3341730
   2 STRETCH   1  2                     1.8418588       0.9746698
   3 STRETCH   1  4                     1.1984282       0.6341810
   4 STRETCH   1  5                     0.9616980       0.5089087
   5 STRETCH   2  3                     1.3472305       0.7129237
   6 BEND      1  2  3                  1.8044552     103.3876684
   7 BEND      1  3  2                  0.7904790      45.2911103
   8 BEND      2  1  5                  1.9864551     113.8154923
   9 BEND      2  1  4                  2.0160683     115.5122034
  10 BEND      2  1  3                  0.5466584      31.3212213
  11 BEND      3  1  5                  2.4590334     140.8922362
  12 BEND      3  1  4                  1.5135079      86.7176128
  13 BEND      4  1  5                  2.2806620     130.6723043
  14 TORSION   2  3  1  4              -2.7495922    -157.5400287
  15 TORSION   2  3  1  5               0.6597795      37.8025820
  16 TORSION   3  2  1  5              -2.7052603    -154.9999984
  17 TORSION   3  2  1  4               0.4363334      25.0000613

          ********************
          1 ELECTRON INTEGRALS
          ********************
 ...... END OF ONE-ELECTRON INTEGRALS ......
 STEP CPU TIME =     0.00 TOTAL CPU TIME =          0.0 (      0.0 MIN)
 TOTAL WALL CLOCK TIME=          0.0 SECONDS, CPU UTILIZATION IS    50.00%

          -------------
          GUESS OPTIONS
          -------------
          GUESS =HUCKEL            NORB  =       0          NORDER=       0
          MIX   =       F          PRTMO =       F          PUNMO =       F
          TOLZ  = 1.0E-08          TOLE  = 1.0E-05
          SYMDEN=       F          PURIFY=       F

 INITIAL GUESS ORBITALS GENERATED BY HUCKEL   ROUTINE.
 HUCKEL GUESS REQUIRES     11924 WORDS.

 SYMMETRIES FOR INITIAL GUESS ORBITALS FOLLOW.   BOTH SET(S).
    12 ORBITALS ARE OCCUPIED (    3 CORE ORBITALS).
     4=A        5=A        6=A        7=A        8=A        9=A       10=A   
    11=A       12=A       13=A       14=A       15=A       16=A       17=A   
    18=A       19=A       20=A       21=A       22=A   
 ...... END OF INITIAL ORBITAL SELECTION ......
 STEP CPU TIME =     0.00 TOTAL CPU TIME =          0.0 (      0.0 MIN)
 TOTAL WALL CLOCK TIME=          0.0 SECONDS, CPU UTILIZATION IS    50.00%

                    ----------------------
                    AO INTEGRAL TECHNOLOGY
                    ----------------------
     S,P,L SHELL ROTATED AXIS INTEGRALS, REPROGRAMMED BY
        KAZUYA ISHIMURA (IMS) AND JOSE SIERRA (SYNSTAR).
     S,P,D,L SHELL ROTATED AXIS INTEGRALS PROGRAMMED BY
        KAZUYA ISHIMURA (INSTITUTE FOR MOLECULAR SCIENCE).
     S,P,D,F,G SHELL TO TOTAL QUARTET ANGULAR MOMENTUM SUM 5,
        ERIC PROGRAM BY GRAHAM FLETCHER (ELORET AND NASA ADVANCED
        SUPERCOMPUTING DIVISION, AMES RESEARCH CENTER).
     S,P,D,F,G,L SHELL GENERAL RYS QUADRATURE PROGRAMMED BY
        MICHEL DUPUIS (PACIFIC NORTHWEST NATIONAL LABORATORY).

          --------------------
          2 ELECTRON INTEGRALS
          --------------------

 THE -PK- OPTION IS OFF, THE INTEGRALS ARE NOT IN SUPERMATRIX FORM.
 STORING   15000 INTEGRALS/RECORD ON DISK, USING 12 BYTES/INTEGRAL.
 TWO ELECTRON INTEGRAL EVALUATION REQUIRES   89546 WORDS OF MEMORY.
 II,JST,KST,LST =  1  1  1  1 NREC =         1 INTLOC =    1
 II,JST,KST,LST =  2  1  1  1 NREC =         1 INTLOC =    2
 II,JST,KST,LST =  3  1  1  1 NREC =         1 INTLOC =    7
 II,JST,KST,LST =  4  1  1  1 NREC =         1 INTLOC =   22
 II,JST,KST,LST =  5  1  1  1 NREC =         1 INTLOC =   67
 II,JST,KST,LST =  6  1  1  1 NREC =         1 INTLOC =  214
 II,JST,KST,LST =  7  1  1  1 NREC =         1 INTLOC =  718
 II,JST,KST,LST =  8  1  1  1 NREC =         1 INTLOC = 1389
 II,JST,KST,LST =  9  1  1  1 NREC =         1 INTLOC = 2259
 II,JST,KST,LST = 10  1  1  1 NREC =         1 INTLOC = 6273
 II,JST,KST,LST = 11  1  1  1 NREC =         1 INTLOC =13062
 II,JST,KST,LST = 12  1  1  1 NREC =         2 INTLOC = 1310
 II,JST,KST,LST = 13  1  1  1 NREC =         2 INTLOC = 5299
 II,JST,KST,LST = 14  1  1  1 NREC =         2 INTLOC = 9919
 II,JST,KST,LST = 15  1  1  1 NREC =         3 INTLOC =13031
 II,JST,KST,LST = 16  1  1  1 NREC =         5 INTLOC = 8775
 II,JST,KST,LST = 17  1  1  1 NREC =         6 INTLOC = 4737
 II,JST,KST,LST = 18  1  1  1 NREC =         7 INTLOC = 1917
 II,JST,KST,LST = 19  1  1  1 NREC =         8 INTLOC =  401
 TOTAL NUMBER OF NONZERO TWO-ELECTRON INTEGRALS =              120280
          9 INTEGRAL RECORDS WERE STORED ON DISK FILE  8.
  ...... END OF TWO-ELECTRON INTEGRALS .....
 STEP CPU TIME =     0.04 TOTAL CPU TIME =          0.1 (      0.0 MIN)
 TOTAL WALL CLOCK TIME=          0.1 SECONDS, CPU UTILIZATION IS    75.00%

          --------------------------
               R-PBE SCF CALCULATION
          --------------------------

     NUCLEAR ENERGY =       114.9672129547
     MAXIT =   30     NPUNCH=    2
     EXTRAP=T  DAMP=F  SHIFT=F  RSTRCT=F  DIIS=T  DEM=F  SOSCF=F
         DENSITY MATRIX CONVERGENCE THRESHOLD=  1.00E-05
     COARSE -> FINE DFT GRID SWITCH THRESHOLD=  3.00E-04 (SWITCH IN $DFT)
                   HF -> DFT SWITCH THRESHOLD=  5.00E-03 (SWOFF IN $DFT)
     MEMORY REQUIRED FOR RHF ITERS=    232343 WORDS.

 DFT CODE IS SWITCHING FROM THE FINE GRID NRAD= 96,  NLEB=  302
                      TO THE COARSE GRID NRAD0= 24, NLEB0=  110

     EXCHANGE FUNCTIONAL   =PBE       
     CORRELATION FUNCTIONAL=PBE       
     DFT THRESHOLD         =.276E-07
     GRID CHANGE THRESHOLD =.300E-03
 FOR AN EULER-MACLAURIN QUADRATURE USING  96 RADIAL POINTS:
 SMALLEST GAUSSIAN PRIMITIVE EXPONENT=        0.1366870000 OF TYPE -S-
 ON ATOM NUMBER   4 HAS RADIAL NORMALIZATION=  1.000000
  LARGEST GAUSSIAN PRIMITIVE EXPONENT=      864.9000000000 OF TYPE -S-
 ON ATOM NUMBER   3 HAS RADIAL NORMALIZATION=  1.000000
 DFT IS SWITCHED OFF, PERFORMING PURE SCF UNTIL SWOFF THRESHOLD IS REACHED.

 ITER EX DEM     TOTAL ENERGY        E CHANGE  DENSITY CHANGE    DIIS ERROR
   1  0  0     -179.7723430699  -179.7723430699   1.299824956   0.765488840
          * * *   INITIATING DIIS PROCEDURE   * * *
   2  1  0     -180.9329039576    -1.1605608877   0.645649962   0.250856849
   3  2  0     -181.0210468960    -0.0881429384   0.187180487   0.071588377
   4  3  0     -181.0316221867    -0.0105752907   0.311307842   0.011223797
   5  4  0     -181.0329829477    -0.0013607610   0.105253838   0.002265546
   6  5  0     -181.0331015597    -0.0001186120   0.021307898   0.001060864
   7  6  0     -181.0331123438    -0.0000107840   0.005573426   0.000580123
   8  7  0     -181.0331143159    -0.0000019722   0.001984023   0.000288275
 CONVERGED TO SWOFF, SO DFT CALCULATION IS NOW SWITCHED ON.
          * * *   INITIATING DIIS PROCEDURE   * * *
   9  8  0     -181.8165235534    -0.7834092375   1.736592711   0.105409916
  10  9  0     -181.8304475749    -0.0139240214   0.723199700   0.022489694
  11 10  0     -181.8298855057     0.0005620691   0.322296491   0.034447296
  12 11  0     -181.8315581440    -0.0016726383   0.017955953   0.002990164
  13 12  0     -181.8315698251    -0.0000116811   0.023421132   0.000944286
  14 13  0     -181.8315735677    -0.0000037426   0.002706508   0.000098359
  15 14  0     -181.8315736112    -0.0000000435   0.000312139   0.000038024
  16 15  0     -181.8315736140    -0.0000000028   0.000021505   0.000002542
 DFT CODE IS SWITCHING BACK TO THE FINE GRID
          * * *   INITIATING DIIS PROCEDURE   * * *
  17 16  0     -181.8343457066    -0.0027720926   0.046801715   0.000769132
  18 17  0     -181.8343495905    -0.0000038838   0.005298833   0.000328817
  19 18  0     -181.8343496372    -0.0000000467   0.002937467   0.000298213
  20 19  0     -181.8343497639    -0.0000001268   0.000861253   0.000038429
  21 20  0     -181.8343497694    -0.0000000054   0.000249831   0.000019391
  22 21  0     -181.8343497697    -0.0000000003   0.000011442   0.000002656
  23 22  0     -181.8343497697    -0.0000000000   0.000005887   0.000000408

          -----------------
          DENSITY CONVERGED
          -----------------
     TIME TO FORM FOCK OPERATORS=       2.5 SECONDS (       0.1 SEC/ITER)
     TIME TO SOLVE SCF EQUATIONS=       0.0 SECONDS (       0.0 SEC/ITER)

 FINAL R-PBE ENERGY IS     -181.8343497697 AFTER  23 ITERATIONS
 DFT EXCHANGE + CORRELATION ENERGY =       -24.5925757440
 TOTAL ELECTRON NUMBER             =        24.0000630838

          ------------
          EIGENVECTORS
          ------------

                      1          2          3          4          5
                  -18.8130   -14.1887   -13.9547    -1.6528    -1.1302
                     A          A          A          A          A   
    1  N  1  S   -0.000034   0.010524   0.981384  -0.103624  -0.237223
    2  N  1  S    0.001932  -0.005942   0.070289   0.140721   0.371937
    3  N  1  S   -0.000671  -0.000694  -0.055515  -0.070806  -0.004786
    4  N  1  X   -0.000767   0.002051  -0.000115  -0.115536  -0.090138
    5  N  1  Y   -0.000203   0.001205  -0.001673   0.005268  -0.093608
    6  N  1  Z    0.000191   0.000017  -0.000760   0.004744  -0.009028
    7  N  1  X   -0.001733  -0.001671  -0.003533  -0.028992  -0.077492
    8  N  1  Y   -0.000587   0.000107   0.001457   0.024046  -0.002334
    9  N  1  Z   -0.001220   0.000157   0.001251   0.009915   0.012469
   10  N  2  S    0.002149   0.980506  -0.011032  -0.265703   0.005960
   11  N  2  S   -0.002867   0.083975  -0.004329   0.400366   0.029859
   12  N  2  S    0.025858   0.040437   0.003075   0.110157   0.017594
   13  N  2  X    0.001635  -0.003400  -0.002108  -0.067628   0.397095
   14  N  2  Y   -0.002512   0.011268  -0.001550   0.268459  -0.017713
   15  N  2  Z    0.000245  -0.000744   0.000068  -0.016274  -0.003772
   16  N  2  X   -0.004543  -0.018892  -0.001497  -0.006575   0.115678
   17  N  2  Y    0.004695   0.024410  -0.002530   0.079811   0.004003
   18  N  2  Z   -0.000171  -0.001617   0.000337  -0.006553  -0.004657
   19  O  3  S    0.982513  -0.010015   0.000169  -0.237400   0.135922
   20  O  3  S    0.061956  -0.003223   0.001566   0.337876  -0.230758
   21  O  3  S   -0.049187  -0.080932   0.000737  -0.002145  -0.060071
   22  O  3  X    0.007360   0.002610  -0.000171   0.203888   0.016592
   23  O  3  Y   -0.007208  -0.003654  -0.000129  -0.146576   0.217709
   24  O  3  Z    0.000716   0.000318   0.000072   0.014596  -0.018629
   25  O  3  X   -0.008138  -0.024501   0.001028   0.034837   0.027186
   26  O  3  Y    0.007202   0.027267   0.000641   0.003351   0.064330
   27  O  3  Z   -0.000743  -0.002256  -0.000489   0.002808  -0.006336
   28  H  4  S    0.000433   0.002184  -0.003478   0.032492   0.095338
   29  H  4  S    0.004612   0.000042   0.011945  -0.010666   0.004188
   30  H  5  S   -0.000219   0.002960  -0.001119   0.034803   0.166333
   31  H  5  S   -0.003677   0.001359   0.018810   0.048515   0.068186

                      6          7          8          9         10
                   -0.8624    -0.7976    -0.7469    -0.5021    -0.4779
                     A          A          A          A          A   
    1  N  1  S    0.037725  -0.107801  -0.112297   0.020683   0.026906
    2  N  1  S   -0.027799   0.107084   0.137361   0.001193  -0.104422
    3  N  1  S    0.010417   0.020260   0.091191  -0.003581  -0.147006
    4  N  1  X   -0.148083   0.264213   0.197837  -0.118733   0.172748
    5  N  1  Y    0.219082  -0.106867   0.348313   0.034394  -0.157751
    6  N  1  Z    0.191990   0.040837  -0.004827   0.084057  -0.204973
    7  N  1  X   -0.037094   0.075489   0.085610  -0.062263   0.072306
    8  N  1  Y    0.064141  -0.017198   0.142381  -0.059708   0.007365
    9  N  1  Z    0.089139   0.053496  -0.021028   0.033645  -0.135320
   10  N  2  S    0.060916  -0.043436   0.113497   0.006048   0.133048
   11  N  2  S   -0.118005   0.069226  -0.259023  -0.078457  -0.307628
   12  N  2  S   -0.091698   0.079821  -0.153345   0.066124  -0.320387
   13  N  2  X    0.062860  -0.149205  -0.179021   0.134110   0.025043
   14  N  2  Y    0.108900  -0.147694   0.000251  -0.318032   0.173725
   15  N  2  Z    0.314512   0.267946  -0.132194  -0.014782   0.053858
   16  N  2  X   -0.012424  -0.010643  -0.084082   0.037881   0.073870
   17  N  2  Y    0.038714  -0.055082  -0.011860  -0.162497   0.066433
   18  N  2  Z    0.138207   0.113923  -0.051987  -0.004124   0.021435
   19  O  3  S    0.014511  -0.016319  -0.032584  -0.092398  -0.143930
   20  O  3  S   -0.032194   0.036557   0.061128   0.158782   0.276300
   21  O  3  S    0.046670   0.004673   0.139924   0.563345   0.561639
   22  O  3  X    0.077936  -0.155065  -0.016137  -0.347874   0.057320
   23  O  3  Y    0.129567  -0.133737   0.009230   0.244368   0.273275
   24  O  3  Z    0.256981   0.244916  -0.124262  -0.077248   0.116510
   25  O  3  X    0.093437  -0.128982   0.049607  -0.162603   0.093379
   26  O  3  Y    0.078321  -0.094326   0.005731   0.099709   0.190723
   27  O  3  Z    0.166832   0.163196  -0.089631  -0.056010   0.111638
   28  H  4  S    0.126801   0.054070   0.358759   0.080792  -0.219092
   29  H  4  S   -0.024538   0.016914   0.048952   0.114975  -0.058305
   30  H  5  S   -0.209265   0.285757   0.090471  -0.175935   0.267329
   31  H  5  S    0.002758   0.055435   0.022738  -0.093270   0.122358

                     11         12         13         14         15
                   -0.2575    -0.0294     0.1118     0.1419     0.1616
                     A          A          A          A          A   
    1  N  1  S    0.003595  -0.122342  -0.057429   0.021920  -0.001122
    2  N  1  S   -0.026719   0.320978   0.025436   0.017306  -0.008544
    3  N  1  S   -0.079833   1.098136   2.278792  -1.225619  -0.309871
    4  N  1  X    0.147426  -0.219609   0.123377  -0.139639  -0.046070
    5  N  1  Y   -0.176613  -0.042456   0.122599   0.084409   0.142477
    6  N  1  Z    0.431796  -0.016612  -0.033185  -0.058851   0.150233
    7  N  1  X    0.165816  -0.251677   0.009609  -0.216886  -0.131110
    8  N  1  Y   -0.155630  -0.100600   0.288123   0.358886   0.471809
    9  N  1  Z    0.575499  -0.045748  -0.099239  -0.223361   0.490538
   10  N  2  S    0.038211   0.058387  -0.020521   0.030375   0.024460
   11  N  2  S   -0.071388  -0.050729   0.002380  -0.022688  -0.051802
   12  N  2  S   -0.180284  -0.966763  -0.364343   0.421474   0.275041
   13  N  2  X    0.000835   0.135329  -0.037878   0.031211   0.009002
   14  N  2  Y    0.136287   0.226160  -0.101929   0.094261   0.012290
   15  N  2  Z   -0.029397  -0.018005   0.201632   0.332827  -0.224911
   16  N  2  X    0.048386   0.036503  -0.195698   0.064838   0.053890
   17  N  2  Y    0.108847   0.254429  -0.407464   0.378658   0.065753
   18  N  2  Z    0.004072  -0.027745   0.461343   0.780322  -0.684078
   19  O  3  S   -0.058156  -0.013554  -0.014455   0.007508  -0.020657
   20  O  3  S    0.124252  -0.003049   0.032937  -0.024799   0.049092
   21  O  3  S    0.180165   0.197513   0.447104  -0.420979  -0.032744
   22  O  3  X    0.063110  -0.369920   0.074313  -0.080137  -0.016935
   23  O  3  Y    0.018196  -0.233051   0.113895  -0.057406   0.057150
   24  O  3  Z   -0.255789   0.032141  -0.144351  -0.230240   0.206008
   25  O  3  X    0.038842  -0.549952   0.223620  -0.244925  -0.075705
   26  O  3  Y    0.025515  -0.384519   0.155533  -0.092432   0.109347
   27  O  3  Z   -0.295321   0.053381  -0.351547  -0.627277   0.521075
   28  H  4  S   -0.062148   0.038448  -0.021201  -0.130918   0.044874
   29  H  4  S   -0.040166  -0.337460  -1.830345  -0.408324  -1.759648
   30  H  5  S    0.083360  -0.049204   0.082877  -0.046801   0.010254
   31  H  5  S    0.063943  -0.480401  -0.859878   1.911146   1.800770

                     16         17         18         19         20
                    0.3436     0.5338     0.7198     0.7932     0.8131
                     A          A          A          A          A   
    1  N  1  S   -0.012622   0.000444  -0.052300   0.199679  -0.007394
    2  N  1  S   -0.092280  -0.367595   0.595902  -1.227337   0.085540
    3  N  1  S   -2.721634   6.246399   2.592733   3.693037   0.038826
    4  N  1  X    0.070792  -0.089178  -0.237068   0.121923  -0.100691
    5  N  1  Y    0.006997  -0.093502  -0.156457   0.086024   0.142758
    6  N  1  Z   -0.026342   0.012385   0.054998   0.019002  -0.322739
    7  N  1  X    0.985922  -2.853842  -0.023579   0.808412   0.094876
    8  N  1  Y    0.196280  -1.414083  -0.241628   0.163607  -0.284746
    9  N  1  Z   -0.004042   0.191749   0.169701  -0.139697  -0.013618
   10  N  2  S    0.106996   0.114144  -0.065078  -0.059005   0.000546
   11  N  2  S   -0.092770  -0.492232   0.505472   0.140330  -0.029104
   12  N  2  S    8.230524  -3.343445  -1.614139   0.782106  -0.384466
   13  N  2  X    0.027743  -0.365050   0.241278   0.027201   0.010958
   14  N  2  Y    0.179928  -0.186854  -0.118489  -0.198529  -0.069161
   15  N  2  Z   -0.041075   0.007205  -0.002836  -0.055255  -0.786345
   16  N  2  X   -0.505472  -2.851336  -2.481280   0.567972  -0.167299
   17  N  2  Y    2.963826  -0.377618  -0.102866   0.865949  -0.010994
   18  N  2  Z   -0.229655  -0.020414  -0.109361  -0.046748   0.981692
   19  O  3  S    0.054314   0.029038   0.067447  -0.042156  -0.014442
   20  O  3  S   -0.128585  -0.059624  -0.403701   0.180732   0.045445
   21  O  3  S   -5.896755  -1.790864  -0.519073  -0.781842   0.234204
   22  O  3  X    0.017758  -0.061472  -0.021104  -0.046021  -0.027526
   23  O  3  Y    0.022378  -0.039450   0.235430   0.065370   0.015206
   24  O  3  Z   -0.006641  -0.003108   0.027028   0.092512  -0.229574
   25  O  3  X   -1.008516  -0.157722   0.545497  -0.305018   0.176834
   26  O  3  Y    0.811447   0.579633   0.257704  -0.271116   0.000049
   27  O  3  Z   -0.047646  -0.019804   0.013852   0.020746   0.121094
   28  H  4  S   -0.098678   0.073927  -0.439245  -0.595550   0.060706
   29  H  4  S    0.355782  -0.646899  -0.435858  -0.878027  -0.084614
   30  H  5  S    0.019929   0.239929  -0.151707  -0.758820  -0.038657
   31  H  5  S   -0.506059  -0.446461  -0.120989  -1.723173   0.155022

                     21         22         23         24         25
                    0.9141     1.0053     1.0631     1.1224     1.2855
                     A          A          A          A          A   
    1  N  1  S    0.005561  -0.006656   0.025654   0.056159   0.165059
    2  N  1  S    0.082001   0.003743  -0.086119  -0.546810  -0.994186
    3  N  1  S    5.245661  -1.047508   2.337099   0.195939   2.176278
    4  N  1  X   -0.209730  -0.064001  -0.294445   0.229577   0.034524
    5  N  1  Y   -0.178177   0.175867   0.260040  -0.555163  -0.048678
    6  N  1  Z   -0.069809  -0.843711  -0.243016  -0.202349  -0.026996
    7  N  1  X   -1.198429   0.040901   0.536421  -0.905080  -0.490435
    8  N  1  Y    0.057339   0.196468  -0.840582   2.481791  -0.415349
    9  N  1  Z    0.121259   1.204118   0.179046   0.839018  -0.106127
   10  N  2  S    0.059277  -0.016350   0.053870  -0.002819   0.175481
   11  N  2  S    0.493220  -0.007059  -0.327292  -0.090173  -2.087928
   12  N  2  S   -0.723124   0.478907  -2.460885  -1.258499  -5.626791
   13  N  2  X    0.033089   0.032374  -0.126631   0.016080   0.488979
   14  N  2  Y    0.501615  -0.098560   0.235520  -0.015772   0.183243
   15  N  2  Z   -0.065417   0.317440   0.067654  -0.130679   0.090220
   16  N  2  X   -2.028022   0.221237  -0.082763   1.352577   0.888951
   17  N  2  Y   -1.214803   0.246098  -1.054894  -0.753140  -2.280754
   18  N  2  Z    0.040335  -0.671325  -0.064426  -0.059429   0.053320
   19  O  3  S   -0.141875  -0.083278   0.227823   0.121817  -0.030013
   20  O  3  S    0.938399   0.406524  -1.220973  -0.586106   0.035357
   21  O  3  S   -3.224953  -0.458706   3.310056   2.266118   6.104368
   22  O  3  X    0.025958  -0.130775   0.241146   0.138890   0.254839
   23  O  3  Y   -0.005907   0.115876  -0.236439  -0.133691   0.262859
   24  O  3  Z    0.076844   0.062992   0.114130   0.005849  -0.189952
   25  O  3  X   -0.991173   0.124521   0.365665  -0.367107   1.240485
   26  O  3  Y    1.300835  -0.212151   0.106636  -0.563734  -2.297414
   27  O  3  Z   -0.125813  -0.087501  -0.096477   0.087866   0.357649
   28  H  4  S   -0.318150  -0.076110  -0.047514  -0.546153   0.634844
   29  H  4  S   -0.807125  -0.004460  -0.200364  -1.967348  -0.088779
   30  H  5  S   -0.245186   0.210631  -0.328864   0.540093   0.260649
   31  H  5  S   -1.016141   0.547674  -1.148579   1.764666  -0.468588

                     26         27         28         29         30
                    1.3519     1.3886     1.5570     1.6732     2.4371
                     A          A          A          A          A   
    1  N  1  S   -0.013899  -0.097344   0.230185   0.118547   0.120856
    2  N  1  S   -0.005092   0.684008  -1.537848  -0.443119  -1.601066
    3  N  1  S   -2.900552  -0.458386  -1.045079   3.266138  -0.505917
    4  N  1  X   -0.482087   0.208572  -0.287787   0.630254  -0.608237
    5  N  1  Y   -0.277919   0.117862  -0.367274   0.387300   0.807959
    6  N  1  Z    0.086159   0.062965  -0.062947   0.006675   0.412433
    7  N  1  X    1.918181  -0.388102   0.796893  -1.249287  -1.025038
    8  N  1  Y    1.003362   0.007551  -0.631392  -0.639066   2.068686
    9  N  1  Z   -0.015947  -0.112713  -0.337035   0.161156   0.693891
   10  N  2  S    0.218089   0.095132  -0.124135  -0.083803  -0.071851
   11  N  2  S   -1.955492  -1.084364   1.252020   0.311626   0.644442
   12  N  2  S   -0.445015  -2.594633   3.829944  -2.461889   0.457226
   13  N  2  X   -0.172833   0.069621   0.116747   0.784489  -0.095021
   14  N  2  Y   -0.061627  -0.030898  -0.003022   0.347989   0.170733
   15  N  2  Z    0.002885  -0.396781  -0.140117  -0.019377  -0.082149
   16  N  2  X    2.391526   0.691028  -0.909882  -1.890355   1.111142
   17  N  2  Y   -1.242661  -1.081347   1.862440  -0.849082  -0.190535
   18  N  2  Z    0.053552   0.977228   0.478376  -0.023975  -0.188593
   19  O  3  S   -0.027478  -0.014780   0.000485   0.024875   0.023955
   20  O  3  S    0.016818   0.047323  -0.031528  -0.168053  -0.070609
   21  O  3  S    5.241347   3.051884  -3.781952  -0.054407  -0.405691
   22  O  3  X   -0.525863   0.041289  -0.076434  -0.458115  -0.069493
   23  O  3  Y   -0.279544   0.139678  -0.078213  -0.509731   0.241969
   24  O  3  Z    0.002532   0.843655   0.387738   0.006346   0.036061
   25  O  3  X    2.243195   0.683655  -0.523673   0.602505  -0.868904
   26  O  3  Y   -1.184456  -1.147377   1.129277   0.695423  -0.300512
   27  O  3  Z    0.125948  -1.092826  -0.745319   0.018518  -0.026912
   28  H  4  S   -0.161679  -0.347314   1.631770  -0.184330  -1.130982
   29  H  4  S   -0.107091   0.396327  -0.039843  -0.395041  -0.509880
   30  H  5  S    0.150750  -0.201132   0.595002   0.157355   2.760925
   31  H  5  S   -0.019013   0.435849  -0.399482  -0.163398   0.629161

                     31
                    2.8325
                     A   
    1  N  1  S    0.032754
    2  N  1  S   -0.146631
    3  N  1  S    0.143735
    4  N  1  X    0.348704
    5  N  1  Y   -0.132599
    6  N  1  Z   -0.075375
    7  N  1  X    0.148302
    8  N  1  Y   -0.253197
    9  N  1  Z   -0.127760
   10  N  2  S   -0.155750
   11  N  2  S    1.041065
   12  N  2  S   -1.731603
   13  N  2  X   -0.723143
   14  N  2  Y    1.056750
   15  N  2  Z   -0.071934
   16  N  2  X    0.488744
   17  N  2  Y   -0.545711
   18  N  2  Z    0.097072
   19  O  3  S    0.186820
   20  O  3  S   -1.471600
   21  O  3  S    2.089203
   22  O  3  X   -0.790087
   23  O  3  Y    0.874890
   24  O  3  Z   -0.066387
   25  O  3  X    0.429542
   26  O  3  Y   -0.386298
   27  O  3  Z    0.020903
   28  H  4  S    0.297604
   29  H  4  S    0.025752
   30  H  5  S   -0.434387
   31  H  5  S   -0.014982
 ...... END OF RHF CALCULATION ......
 STEP CPU TIME =     2.58 TOTAL CPU TIME =          2.6 (      0.0 MIN)
 TOTAL WALL CLOCK TIME=          2.7 SECONDS, CPU UTILIZATION IS    98.14%

     ---------------------------------------------------------------------
     PROPERTIES FOR THE PBE      DFT FUNCTIONAL (RHF  TYPE) DENSITY MATRIX
     ---------------------------------------------------------------------

          -----------------
          ENERGY COMPONENTS
          -----------------

         WAVEFUNCTION NORMALIZATION =       1.0000000000

                ONE ELECTRON ENERGY =    -469.2765637874
                TWO ELECTRON ENERGY =     172.4750010630
           NUCLEAR REPULSION ENERGY =     114.9672129547
                                      ------------------
                       TOTAL ENERGY =    -181.8343497697

 ELECTRON-ELECTRON POTENTIAL ENERGY =     172.4750010630
  NUCLEUS-ELECTRON POTENTIAL ENERGY =    -666.1112023283
   NUCLEUS-NUCLEUS POTENTIAL ENERGY =     114.9672129547
                                      ------------------
             TOTAL POTENTIAL ENERGY =    -378.6689883107
               TOTAL KINETIC ENERGY =     196.8346385409
                 VIRIAL RATIO (V/T) =       1.9237924337

          ---------------------------------------
          MULLIKEN AND LOWDIN POPULATION ANALYSES
          ---------------------------------------

     ATOMIC MULLIKEN POPULATION IN EACH MOLECULAR ORBITAL

                      1          2          3          4          5

                  2.000000   2.000000   2.000000   2.000000   2.000000

    1             0.000272  -0.000360   1.994795   0.143904   0.551310
    2             0.005849   2.037898  -0.000736   1.083335   0.785313
    3             1.993683  -0.037844   0.000244   0.724109   0.355211
    4             0.000385   0.000043   0.001628   0.007271   0.073571
    5            -0.000190   0.000263   0.004069   0.041381   0.234595

                      6          7          8          9         10

                  2.000000   2.000000   2.000000   2.000000   2.000000

    1             0.537464   0.462125   0.965611   0.119974   0.417255
    2             0.655763   0.571823   0.315525   0.266997   0.439136
    3             0.563090   0.606027   0.129697   1.499352   0.888621
    4             0.067670   0.023174   0.541394   0.060871   0.122416
    5             0.176013   0.336851   0.047772   0.052805   0.132573

                     11         12

                  2.000000   2.000000

    1             1.539607  -0.210655
    2             0.141745   0.852371
    3             0.304409   0.938694
    4             0.007775   0.158871
    5             0.006464   0.260719

               ----- POPULATIONS IN EACH AO -----
                             MULLIKEN      LOWDIN
              1  N  1  S      1.98313     1.97434
              2  N  1  S      0.90773     0.70238
              3  N  1  S     -0.37860     0.24659
              4  N  1  X      0.86572     0.86274
              5  N  1  Y      0.85683     0.83379
              6  N  1  Z      0.86350     0.86995
              7  N  1  X      0.24601     0.42914
              8  N  1  Y      0.27954     0.45589
              9  N  1  Z      0.89744     0.86890
             10  N  2  S      1.98291     1.97372
             11  N  2  S      0.98492     0.61929
             12  N  2  S      0.96481     0.49253
             13  N  2  X      0.86641     0.85663
             14  N  2  Y      0.94153     0.93139
             15  N  2  Z      0.64217     0.58572
             16  N  2  X      0.14739     0.36651
             17  N  2  Y      0.33746     0.68554
             18  N  2  Z      0.28742     0.35805
             19  O  3  S      1.98467     1.97491
             20  O  3  S      0.94692     0.77267
             21  O  3  S      0.83819     0.56674
             22  O  3  X      0.99658     1.02212
             23  O  3  Y      0.92715     0.94720
             24  O  3  Z      0.71837     0.70339
             25  O  3  X      0.58854     0.69588
             26  O  3  Y      0.44709     0.69558
             27  O  3  Z      0.51778     0.54706
             28  H  4  S      0.81251     0.71047
             29  H  4  S      0.25256     0.24810
             30  H  5  S      0.90036     0.73146
             31  H  5  S      0.39295     0.27132

          ----- MULLIKEN ATOMIC OVERLAP POPULATIONS -----
          (OFF-DIAGONAL ELEMENTS NEED TO BE MULTIPLIED BY 2)

             1           2           3           4           5

    1    9.8632203
    2   -1.2627542   8.2176857
    3   -1.0445918  -0.5140169   9.3046634
    4   -0.1793944   0.2415324   0.0646587   0.7738249
    5   -0.8551770   0.4725724   0.1545776   0.1644491   1.3568940

          TOTAL MULLIKEN AND LOWDIN ATOMIC POPULATIONS
       ATOM         MULL.POP.    CHARGE          LOW.POP.     CHARGE
    1 N             6.521303    0.478697         7.243715   -0.243715
    2 N             7.155019   -0.155019         6.869379    0.130621
    3 O             7.965291    0.034709         7.925545    0.074455
    4 H             1.065071   -0.065071         0.958578    0.041422
    5 H             1.293316   -0.293316         1.002783   -0.002783

          MULLIKEN SPHERICAL HARMONIC POPULATIONS
       ATOM           S       P       D      F      G      H      I    TOTAL
    1 N             2.51    4.01    0.00   0.00   0.00   0.00   0.00    6.52
    2 N             3.93    3.22    0.00   0.00   0.00   0.00   0.00    7.16
    3 O             3.77    4.20    0.00   0.00   0.00   0.00   0.00    7.97
    4 H             1.07    0.00    0.00   0.00   0.00   0.00   0.00    1.07
    5 H             1.29    0.00    0.00   0.00   0.00   0.00   0.00    1.29

          -------------------------------
          BOND ORDER AND VALENCE ANALYSIS     BOND ORDER THRESHOLD=0.050
          -------------------------------

                   BOND                       BOND                       BOND
  ATOM PAIR DIST  ORDER      ATOM PAIR DIST  ORDER      ATOM PAIR DIST  ORDER
    1   2  0.975  0.560        1   3  1.334 -0.363        1   4  0.634  0.855
    1   5  0.509  0.774        2   3  0.713  1.511        2   4  1.373  0.243
    2   5  1.269  0.269        3   4  1.444  0.140        3   5  1.759  0.244
    4   5  1.040  0.077

                       TOTAL       BONDED        FREE
      ATOM            VALENCE     VALENCE     VALENCE
    1 N                 1.826       1.826       0.000
    2 N                 2.583       2.583      -0.000
    3 O                 1.531       1.531      -0.000
    4 H                 1.315       1.315       0.000
    5 H                 1.365       1.365       0.000

          ---------------------
          ELECTROSTATIC MOMENTS
          ---------------------

 POINT   1           X           Y           Z (BOHR)    CHARGE
                 0.000000    0.000000   -0.000000        0.00 (A.U.)
         DX          DY          DZ         /D/  (DEBYE)
     0.663946    0.902654    0.005042    1.120551
 ...... END OF PROPERTY EVALUATION ......
 STEP CPU TIME =     0.00 TOTAL CPU TIME =          2.6 (      0.0 MIN)
 TOTAL WALL CLOCK TIME=          2.7 SECONDS, CPU UTILIZATION IS    98.14%

 BEGINNING ONE ELECTRON GRADIENT...
 ..... END OF 1-ELECTRON GRADIENT ......
 STEP CPU TIME =     0.01 TOTAL CPU TIME =          2.6 (      0.0 MIN)
 TOTAL WALL CLOCK TIME=          2.7 SECONDS, CPU UTILIZATION IS    98.15%

          ----------------------
          GRADIENT OF THE ENERGY
          ----------------------
 MEMORY FOR GRID POINT CONTRIBUTIONS TO THE DFT GRADIENT=    199178 WORDS.
 STEP CPU TIME =     0.45 TOTAL CPU TIME =          3.1 (      0.1 MIN)
 TOTAL WALL CLOCK TIME=          3.2 SECONDS, CPU UTILIZATION IS    98.41%
 THE COARSE/FINE SCHWARZ SCREENINGS SKIPPED            0/           0 BLOCKS.
 THE NUMBER OF GRADIENT INTEGRAL BLOCKS COMPUTED WAS     17773
 ...... END OF 2-ELECTRON GRADIENT ......
 STEP CPU TIME =     0.03 TOTAL CPU TIME =          3.1 (      0.1 MIN)
 TOTAL WALL CLOCK TIME=          3.2 SECONDS, CPU UTILIZATION IS    98.43%

          NSERCH=  0     ENERGY=    -181.8343498

                                 -----------------------
                                 GRADIENT (HARTREE/BOHR)
                                 -----------------------
        ATOM     ZNUC       DE/DX         DE/DY         DE/DZ
 --------------------------------------------------------------
    1  N            7.0     0.6413136    -0.8332146    -0.6263656
    2  N            7.0    -2.7714959     4.5708056    -0.2943925
    3  O            8.0     4.5671080    -4.2755434     0.2772548
    4  H            1.0    -0.0818061    -1.2217877    -0.3765843
    5  H            1.0    -2.3551197     1.7597402     1.0200875


                     --------------------
                     INTERNAL COORDINATES
                     --------------------

                 - - ATOMS - -         COORDINATE        GRADIENT
 NO.   TYPE    I  J  K  L  M  N         (ANG,DEG)     (H/B,H/RAD)
 ----------------------------------------------------------------
   1 SYM.CRD.                          -1.3378418       3.4856278
   2 SYM.CRD.                           0.1693064      -1.2307688
   3 SYM.CRD.                          -1.2298744      -0.0835061
   4 SYM.CRD.                           0.4474331      -2.5928703
   5 SYM.CRD.                          -0.9043230       3.6950161
   6 SYM.CRD.                           0.9137919       0.7579115
   7 SYM.CRD.                          -0.5668245       0.2623119
   8 SYM.CRD.                           0.5594560      -0.0153104
   9 SYM.CRD.                          -0.1572059       0.0346667

 NOTE: CARTESIAN GRADIENTS ARE ALWAYS TAKEN TO TEST CONVERGENCE,
       SO THE FOLLOWING GRADIENTS ARE CARTESIAN.

          MAXIMUM GRADIENT = 4.5707798    RMS GRADIENT = 2.3194603

 NSERCH:   0  E=     -181.8343497697  GRAD. MAX=  4.5707798  R.M.S.=  2.3194603

          FORCE CONSTANT MATRIX NOT UPDATED --- TAKING FIRST STEP
          MIN SEARCH, CORRECT HESSIAN, TRYING PURE NR STEP
               NR STEP HAS LENGTH         =   6.739060
          TRIM/QA LAMBDA FOR NON-TS MODES = -18.73033467
          TRIM/QA STEP HAS LENGTH         =   0.300000
          RADIUS OF STEP TAKEN=   0.30000  CURRENT TRUST RADIUS=   0.30000
          TRANSFORMING DISPLACEMENT FROM INTERNALS TO CARTESIANS
          THE ROOT MEAN SQUARE ERROR IN ITERATION   1 IS   0.00240213
          THE ROOT MEAN SQUARE ERROR IN ITERATION   2 IS   0.00000136
          THE ROOT MEAN SQUARE ERROR IN ITERATION   3 IS   0.00000000

 BEGINNING GEOMETRY SEARCH POINT NSERCH=   1 ...

 COORDINATES OF ALL ATOMS ARE (ANGS)
   ATOM   CHARGE       X              Y              Z
 ------------------------------------------------------------
 N           7.0   0.7351691523   0.0906769768  -0.0047256839
 N           7.0  -0.1252183300  -0.3875187523   0.0263393014
 O           8.0  -0.6546264828   0.2300530199  -0.0189232643
 H           1.0   0.7398280368   0.7257945666   0.2053154037
 H           1.0   1.1746984089  -0.2524794454  -0.2052966403


                     --------------------
                     INTERNAL COORDINATES
                     --------------------

                 - - ATOMS - -         COORDINATE      COORDINATE
 NO.   TYPE    I  J  K  L  M  N        (BOHR,RAD)       (ANG,DEG)
 ----------------------------------------------------------------
   1 STRETCH   1  3                     2.6396429       1.3968390
   2 STRETCH   1  2                     1.8610710       0.9848364
   3 STRETCH   1  4                     1.2641593       0.6689644
   4 STRETCH   1  5                     1.1198456       0.5925968
   5 STRETCH   2  3                     1.5395371       0.8146880
   6 BEND      1  2  3                  1.7699960     101.4133016
   7 BEND      1  3  2                  0.7630160      43.7175944
   8 BEND      2  1  5                  1.9578676     112.1775486
   9 BEND      2  1  4                  2.0456088     117.2047489
  10 BEND      2  1  3                  0.6085807      34.8691040
  11 BEND      3  1  5                  2.4853656     142.4009597
  12 BEND      3  1  4                  1.4860844      85.1463633
  13 BEND      4  1  5                  2.2795368     130.6078394
  14 TORSION   2  3  1  4              -2.7502728    -157.5790224
  15 TORSION   2  3  1  5               0.6738492      38.6087160
  16 TORSION   3  2  1  5              -2.7178906    -155.7236612
  17 TORSION   3  2  1  4               0.4415164      25.2970262

          INTERNUCLEAR DISTANCES (ANGS.)
          ------------------------------

                1 N          2 N          3 O          4 H          5 H     

   1 N       0.0000000    0.9848364 *  1.3968390 *  0.6689644 *  0.5925968 *
   2 N       0.9848364 *  0.0000000    0.8146880 *  1.4211982 *  1.3272808 *
   3 O       1.3968390 *  0.8146880 *  0.0000000    1.4968454 *  1.9010529 *
   4 H       0.6689644 *  1.4211982 *  1.4968454 *  0.0000000    1.1466187 *
   5 H       0.5925968 *  1.3272808 *  1.9010529 *  1.1466187 *  0.0000000  

  * ... LESS THAN  3.000

 ...... END OF ONE-ELECTRON INTEGRALS ......
 STEP CPU TIME =     0.00 TOTAL CPU TIME =          3.1 (      0.1 MIN)
 TOTAL WALL CLOCK TIME=          3.2 SECONDS, CPU UTILIZATION IS    98.43%
 TOTAL NUMBER OF NONZERO TWO-ELECTRON INTEGRALS =              120272
          9 INTEGRAL RECORDS WERE STORED ON DISK FILE  8.
  ...... END OF TWO-ELECTRON INTEGRALS .....
 STEP CPU TIME =     0.02 TOTAL CPU TIME =          3.1 (      0.1 MIN)
 TOTAL WALL CLOCK TIME=          3.2 SECONDS, CPU UTILIZATION IS    98.44%

          --------------------------
               R-PBE SCF CALCULATION
          --------------------------
         DENSITY MATRIX CONVERGENCE THRESHOLD=  5.00E-04
     COARSE -> FINE DFT GRID SWITCH THRESHOLD=  1.50E-02 (SWITCH IN $DFT)
                   HF -> DFT SWITCH THRESHOLD=  5.00E-03 (SWOFF IN $DFT)

 DFT CODE IS SWITCHING FROM THE FINE GRID NRAD= 96,  NLEB=  302
                      TO THE COARSE GRID NRAD0= 24, NLEB0=  110

 ITER EX DEM     TOTAL ENERGY        E CHANGE  DENSITY CHANGE    DIIS ERROR
          * * *   INITIATING DIIS PROCEDURE   * * *
   1  0  0     -183.1295638055  -183.1295638055   0.860379724   0.135695678
   2  1  0     -183.1680908968    -0.0385270914   0.288598346   0.046615489
   3  2  0     -183.1714314478    -0.0033405509   0.171862832   0.025448821
   4  3  0     -183.1732371877    -0.0018057400   0.011212253   0.004009268
 DFT CODE IS SWITCHING BACK TO THE FINE GRID
          * * *   INITIATING DIIS PROCEDURE   * * *
   5  4  0     -183.1750853689    -0.0018481812   0.033751126   0.001610854
   6  5  0     -183.1750807113     0.0000046576   0.013098525   0.003010077
   7  6  0     -183.1750932218    -0.0000125105   0.000325606   0.000362776
   8  7  0     -183.1750933417    -0.0000001199   0.000190396   0.000129973
   9  8  0     -183.1750933824    -0.0000000408   0.000120498   0.000014633

          -----------------
          DENSITY CONVERGED
          -----------------
     TIME TO FORM FOCK OPERATORS=       1.6 SECONDS (       0.2 SEC/ITER)
     TIME TO SOLVE SCF EQUATIONS=       0.0 SECONDS (       0.0 SEC/ITER)

 FINAL R-PBE ENERGY IS     -183.1750933824 AFTER   9 ITERATIONS
 DFT EXCHANGE + CORRELATION ENERGY =       -24.2326197417
 TOTAL ELECTRON NUMBER             =        24.0000219909
 ...... END OF RHF CALCULATION ......
 STEP CPU TIME =     1.67 TOTAL CPU TIME =          4.8 (      0.1 MIN)
 TOTAL WALL CLOCK TIME=          4.9 SECONDS, CPU UTILIZATION IS    98.57%
 ..... END OF 1-ELECTRON GRADIENT ......
 STEP CPU TIME =     0.01 TOTAL CPU TIME =          4.8 (      0.1 MIN)
 TOTAL WALL CLOCK TIME=          4.9 SECONDS, CPU UTILIZATION IS    98.57%
 MEMORY FOR GRID POINT CONTRIBUTIONS TO THE DFT GRADIENT=    199178 WORDS.
 STEP CPU TIME =     0.45 TOTAL CPU TIME =          5.3 (      0.1 MIN)
 TOTAL WALL CLOCK TIME=          5.4 SECONDS, CPU UTILIZATION IS    98.69%
 ...... END OF 2-ELECTRON GRADIENT ......
 STEP CPU TIME =     0.02 TOTAL CPU TIME =          5.3 (      0.1 MIN)
 TOTAL WALL CLOCK TIME=          5.4 SECONDS, CPU UTILIZATION IS    98.51%

          NSERCH=  1     ENERGY=    -183.1750934

                                 -----------------------
                                 GRADIENT (HARTREE/BOHR)
                                 -----------------------
        ATOM     ZNUC       DE/DX         DE/DY         DE/DZ
 --------------------------------------------------------------
    1  N            7.0    -0.1531523    -0.3039550    -0.2433849
    2  N            7.0    -1.0384548     2.4814433    -0.1428643
    3  O            8.0     2.6265384    -2.1672149     0.1236622
    4  H            1.0    -0.0622736    -0.9692907    -0.2898237
    5  H            1.0    -1.3726577     0.9590173     0.5524107


                     --------------------
                     INTERNAL COORDINATES
                     --------------------

                 - - ATOMS - -         COORDINATE        GRADIENT
 NO.   TYPE    I  J  K  L  M  N         (ANG,DEG)     (H/B,H/RAD)
 ----------------------------------------------------------------
   1 SYM.CRD.                          -1.4321411       2.3165677
   2 SYM.CRD.                           0.2022469      -0.5078303
   3 SYM.CRD.                          -1.2281538       0.2439081
   4 SYM.CRD.                           0.5171227      -1.2094537
   5 SYM.CRD.                          -1.0038820       2.0014048
   6 SYM.CRD.                           0.8936895       0.2608701
   7 SYM.CRD.                          -0.5737808       0.0806056
   8 SYM.CRD.                           0.5597116       0.0839720
   9 SYM.CRD.                          -0.1581867       0.0551059

 NOTE: CARTESIAN GRADIENTS ARE ALWAYS TAKEN TO TEST CONVERGENCE,
       SO THE FOLLOWING GRADIENTS ARE CARTESIAN.

          MAXIMUM GRADIENT = 2.6265120    RMS GRADIENT = 1.2430788

 NSERCH:   1  E=     -183.1750933824  GRAD. MAX=  2.6265120  R.M.S.=  1.2430788

          HESSIAN UPDATED USING THE BFGS FORMULA
             ACTUAL ENERGY CHANGE WAS  -1.3407436127
          PREDICTED ENERGY CHANGE WAS  -1.7263545490 RATIO=  0.777
          MIN SEARCH, CORRECT HESSIAN, TRYING PURE NR STEP
               NR STEP HAS LENGTH         =   2.262530
          TRIM/QA LAMBDA FOR NON-TS MODES =  -3.31909546
          TRIM/QA STEP HAS LENGTH         =   0.424264
          RADIUS OF STEP TAKEN=   0.42426  CURRENT TRUST RADIUS=   0.42426
          TRANSFORMING DISPLACEMENT FROM INTERNALS TO CARTESIANS
          THE ROOT MEAN SQUARE ERROR IN ITERATION   1 IS   0.00202554
          THE ROOT MEAN SQUARE ERROR IN ITERATION   2 IS   0.00000113
          THE ROOT MEAN SQUARE ERROR IN ITERATION   3 IS   0.00000000

 BEGINNING GEOMETRY SEARCH POINT NSERCH=   2 ...

 COORDINATES OF ALL ATOMS ARE (ANGS)
   ATOM   CHARGE       X              Y              Z
 ------------------------------------------------------------
 N           7.0   0.8021274359   0.1027758939  -0.0057654562
 N           7.0  -0.1468136406  -0.4291617115   0.0289878345
 O           8.0  -0.7075167106   0.2509400510  -0.0204295175
 H           1.0   0.8083090382   0.8412141608   0.2363291084
 H           1.0   1.3153346125  -0.2888961289  -0.2347576998


                     --------------------
                     INTERNAL COORDINATES
                     --------------------

                 - - ATOMS - -         COORDINATE      COORDINATE
 NO.   TYPE    I  J  K  L  M  N        (BOHR,RAD)       (ANG,DEG)
 ----------------------------------------------------------------
   1 STRETCH   1  3                     2.8666546       1.5169684
   2 STRETCH   1  2                     2.0568125       1.0884184
   3 STRETCH   1  4                     1.4685725       0.7771352
   4 STRETCH   1  5                     1.2944637       0.6850007
   5 STRETCH   2  3                     1.6682850       0.8828184
   6 BEND      1  2  3                  1.7471585     100.1048096
   7 BEND      1  3  2                  0.7843515      44.9400303
   8 BEND      2  1  5                  1.9653838     112.6081961
   9 BEND      2  1  4                  2.0503437     117.4760423
  10 BEND      2  1  3                  0.6100826      34.9551601
  11 BEND      3  1  5                  2.4951053     142.9590006
  12 BEND      3  1  4                  1.4888241      85.3033391
  13 BEND      4  1  5                  2.2672386     129.9032018
  14 TORSION   2  3  1  4              -2.7532235    -157.7480880
  15 TORSION   2  3  1  5               0.6734331      38.5848733
  16 TORSION   3  2  1  5              -2.7224632    -155.9856512
  17 TORSION   3  2  1  4               0.4393932      25.1753745

          INTERNUCLEAR DISTANCES (ANGS.)
          ------------------------------

                1 N          2 N          3 O          4 H          5 H     

   1 N       0.0000000    1.0884184 *  1.5169684 *  0.7771352 *  0.6850007 *
   2 N       1.0884184 *  0.0000000    0.8828184 *  1.6028427 *  1.4923517 *
   3 O       1.5169684 *  0.8828184 *  0.0000000    1.6468382 *  2.1045872 *
   4 H       0.7771352 *  1.6028427 *  1.6468382 *  0.0000000    1.3251970 *
   5 H       0.6850007 *  1.4923517 *  2.1045872 *  1.3251970 *  0.0000000  

  * ... LESS THAN  3.000

 ...... END OF ONE-ELECTRON INTEGRALS ......
 STEP CPU TIME =     0.00 TOTAL CPU TIME =          5.3 (      0.1 MIN)
 TOTAL WALL CLOCK TIME=          5.4 SECONDS, CPU UTILIZATION IS    98.51%
 TOTAL NUMBER OF NONZERO TWO-ELECTRON INTEGRALS =              120162
          9 INTEGRAL RECORDS WERE STORED ON DISK FILE  8.
  ...... END OF TWO-ELECTRON INTEGRALS .....
 STEP CPU TIME =     0.02 TOTAL CPU TIME =          5.3 (      0.1 MIN)
 TOTAL WALL CLOCK TIME=          5.4 SECONDS, CPU UTILIZATION IS    98.52%

          --------------------------
               R-PBE SCF CALCULATION
          --------------------------
         DENSITY MATRIX CONVERGENCE THRESHOLD=  5.00E-04
     COARSE -> FINE DFT GRID SWITCH THRESHOLD=  1.50E-02 (SWITCH IN $DFT)
                   HF -> DFT SWITCH THRESHOLD=  5.00E-03 (SWOFF IN $DFT)

 DFT CODE IS SWITCHING FROM THE FINE GRID NRAD= 96,  NLEB=  302
                      TO THE COARSE GRID NRAD0= 24, NLEB0=  110

 ITER EX DEM     TOTAL ENERGY        E CHANGE  DENSITY CHANGE    DIIS ERROR
          * * *   INITIATING DIIS PROCEDURE   * * *
   1  0  0     -184.0674043321  -184.0674043321   0.171004243   0.151287519
   2  1  0     -184.0907649022    -0.0233605702   0.147198865   0.075302120
   3  2  0     -184.0992640238    -0.0084991216   0.079504371   0.042374933
   4  3  0     -184.1037121061    -0.0044480823   0.057317062   0.012593022
   5  4  0     -184.1042089817    -0.0004968756   0.001797659   0.000436047
 DFT CODE IS SWITCHING BACK TO THE FINE GRID
          * * *   INITIATING DIIS PROCEDURE   * * *
   6  5  0     -184.1051983913    -0.0009894096   0.014071263   0.000694780
   7  6  0     -184.1052018980    -0.0000035067   0.002001688   0.000180012
   8  7  0     -184.1052018222     0.0000000758   0.001130809   0.000266932
   9  8  0     -184.1052020319    -0.0000002097   0.000127288   0.000056946
  10  9  0     -184.1052020405    -0.0000000085   0.000052020   0.000010404

          -----------------
          DENSITY CONVERGED
          -----------------
     TIME TO FORM FOCK OPERATORS=       1.6 SECONDS (       0.2 SEC/ITER)
     TIME TO SOLVE SCF EQUATIONS=       0.0 SECONDS (       0.0 SEC/ITER)

 FINAL R-PBE ENERGY IS     -184.1052020405 AFTER  10 ITERATIONS
 DFT EXCHANGE + CORRELATION ENERGY =       -23.8084068853
 TOTAL ELECTRON NUMBER             =        24.0000053088
 ...... END OF RHF CALCULATION ......
 STEP CPU TIME =     1.68 TOTAL CPU TIME =          7.0 (      0.1 MIN)
 TOTAL WALL CLOCK TIME=          7.1 SECONDS, CPU UTILIZATION IS    98.59%
 ..... END OF 1-ELECTRON GRADIENT ......
 STEP CPU TIME =     0.00 TOTAL CPU TIME =          7.0 (      0.1 MIN)
 TOTAL WALL CLOCK TIME=          7.1 SECONDS, CPU UTILIZATION IS    98.59%
 MEMORY FOR GRID POINT CONTRIBUTIONS TO THE DFT GRADIENT=    199178 WORDS.
 STEP CPU TIME =     0.46 TOTAL CPU TIME =          7.5 (      0.1 MIN)
 TOTAL WALL CLOCK TIME=          7.6 SECONDS, CPU UTILIZATION IS    98.68%
 ...... END OF 2-ELECTRON GRADIENT ......
 STEP CPU TIME =     0.02 TOTAL CPU TIME =          7.5 (      0.1 MIN)
 TOTAL WALL CLOCK TIME=          7.6 SECONDS, CPU UTILIZATION IS    98.68%

          NSERCH=  2     ENERGY=    -184.1052020

                                 -----------------------
                                 GRADIENT (HARTREE/BOHR)
                                 -----------------------
        ATOM     ZNUC       DE/DX         DE/DY         DE/DZ
 --------------------------------------------------------------
    1  N            7.0    -0.1368191    -0.1599358    -0.1510925
    2  N            7.0    -0.7578139     1.4763028    -0.0792965
    3  O            8.0     1.6712509    -1.3713854     0.0707173
    4  H            1.0    -0.0286767    -0.4431092    -0.1239865
    5  H            1.0    -0.7479413     0.4981276     0.2836583


                     --------------------
                     INTERNAL COORDINATES
                     --------------------

                 - - ATOMS - -         COORDINATE        GRADIENT
 NO.   TYPE    I  J  K  L  M  N         (ANG,DEG)     (H/B,H/RAD)
 ----------------------------------------------------------------
   1 SYM.CRD.                          -1.6209393       1.2000665
   2 SYM.CRD.                           0.1934619      -0.3579691
   3 SYM.CRD.                          -1.2999311       0.1694830
   4 SYM.CRD.                           0.5347762      -0.8366943
   5 SYM.CRD.                          -1.0940573       1.2584013
   6 SYM.CRD.                           0.9138218       0.1428090
   7 SYM.CRD.                          -0.5648750       0.0521335
   8 SYM.CRD.                           0.5370805       0.0522152
   9 SYM.CRD.                          -0.1677374       0.0321779

 NOTE: CARTESIAN GRADIENTS ARE ALWAYS TAKEN TO TEST CONVERGENCE,
       SO THE FOLLOWING GRADIENTS ARE CARTESIAN.

          MAXIMUM GRADIENT = 1.6712182    RMS GRADIENT = 0.7574716

 NSERCH:   2  E=     -184.1052020405  GRAD. MAX=  1.6712182  R.M.S.=  0.7574716

          HESSIAN UPDATED USING THE BFGS FORMULA
             ACTUAL ENERGY CHANGE WAS  -0.9301086581
          PREDICTED ENERGY CHANGE WAS  -0.9116462547 RATIO=  1.020
          MIN SEARCH, CORRECT HESSIAN, TRYING PURE NR STEP
               NR STEP HAS LENGTH         =   0.793276
          TRIM/QA LAMBDA FOR NON-TS MODES =  -0.63217062
          TRIM/QA STEP HAS LENGTH         =   0.500000
          RADIUS OF STEP TAKEN=   0.50000  CURRENT TRUST RADIUS=   0.50000
          TRANSFORMING DISPLACEMENT FROM INTERNALS TO CARTESIANS
          THE ROOT MEAN SQUARE ERROR IN ITERATION   1 IS   0.00477613
          THE ROOT MEAN SQUARE ERROR IN ITERATION   2 IS   0.00000319
          THE ROOT MEAN SQUARE ERROR IN ITERATION   3 IS   0.00000000

 BEGINNING GEOMETRY SEARCH POINT NSERCH=   3 ...

 COORDINATES OF ALL ATOMS ARE (ANGS)
   ATOM   CHARGE       X              Y              Z
 ------------------------------------------------------------
 N           7.0   0.8720097465   0.1012268566  -0.0053956189
 N           7.0  -0.1137886464  -0.4865091337   0.0322856209
 O           8.0  -0.8094973577   0.3023709160  -0.0234453093
 H           1.0   0.8720675968   0.8649184356   0.2374097564
 H           1.0   1.4402527364  -0.3105175161  -0.2389347904


                     --------------------
                     INTERNAL COORDINATES
                     --------------------

                 - - ATOMS - -         COORDINATE      COORDINATE
 NO.   TYPE    I  J  K  L  M  N        (BOHR,RAD)       (ANG,DEG)
 ----------------------------------------------------------------
   1 STRETCH   1  3                     3.2004231       1.6935911
   2 STRETCH   1  2                     2.1700209       1.1483257
   3 STRETCH   1  4                     1.5143525       0.8013609
   4 STRETCH   1  5                     1.3975978       0.7395770
   5 STRETCH   2  3                     1.9904550       1.0533035
   6 BEND      1  2  3                  1.7537658     100.4833787
   7 BEND      1  3  2                  0.7298043      41.8147091
   8 BEND      2  1  5                  1.9660107     112.6441146
   9 BEND      2  1  4                  2.0690367     118.5470702
  10 BEND      2  1  3                  0.6580225      37.7019122
  11 BEND      3  1  5                  2.5420772     145.6502965
  12 BEND      3  1  4                  1.4606899      83.6913681
  13 BEND      4  1  5                  2.2474415     128.7689140
  14 TORSION   2  3  1  4              -2.7630691    -158.3121954
  15 TORSION   2  3  1  5               0.6804340      38.9859965
  16 TORSION   3  2  1  5              -2.7467837    -157.3791152
  17 TORSION   3  2  1  4               0.4314050      24.7176870

          INTERNUCLEAR DISTANCES (ANGS.)
          ------------------------------

                1 N          2 N          3 O          4 H          5 H     

   1 N       0.0000000    1.1483257 *  1.6935911 *  0.8013609 *  0.7395770 *
   2 N       1.1483257 *  0.0000000    1.0533035 *  1.6853323 *  1.5873179 *
   3 O       1.6935911 *  1.0533035 *  0.0000000    1.7922516 *  2.3416753 *
   4 H       0.8013609 *  1.6853323 *  1.7922516 *  0.0000000    1.3897439 *
   5 H       0.7395770 *  1.5873179 *  2.3416753 *  1.3897439 *  0.0000000  

  * ... LESS THAN  3.000

 ...... END OF ONE-ELECTRON INTEGRALS ......
 STEP CPU TIME =     0.00 TOTAL CPU TIME =          7.5 (      0.1 MIN)
 TOTAL WALL CLOCK TIME=          7.6 SECONDS, CPU UTILIZATION IS    98.68%
 TOTAL NUMBER OF NONZERO TWO-ELECTRON INTEGRALS =              119700
          8 INTEGRAL RECORDS WERE STORED ON DISK FILE  8.
  ...... END OF TWO-ELECTRON INTEGRALS .....
 STEP CPU TIME =     0.02 TOTAL CPU TIME =          7.5 (      0.1 MIN)
 TOTAL WALL CLOCK TIME=          7.6 SECONDS, CPU UTILIZATION IS    98.68%

          --------------------------
               R-PBE SCF CALCULATION
          --------------------------
         DENSITY MATRIX CONVERGENCE THRESHOLD=  5.00E-04
     COARSE -> FINE DFT GRID SWITCH THRESHOLD=  1.50E-02 (SWITCH IN $DFT)
                   HF -> DFT SWITCH THRESHOLD=  5.00E-03 (SWOFF IN $DFT)

 DFT CODE IS SWITCHING FROM THE FINE GRID NRAD= 96,  NLEB=  302
                      TO THE COARSE GRID NRAD0= 24, NLEB0=  110

 ITER EX DEM     TOTAL ENERGY        E CHANGE  DENSITY CHANGE    DIIS ERROR
          * * *   INITIATING DIIS PROCEDURE   * * *
   1  0  0     -184.6388271077  -184.6388271077   0.174559521   0.147734373
   2  1  0     -184.6879687084    -0.0491416006   0.190853997   0.056570000
   3  2  0     -184.6902637351    -0.0022950267   0.074801813   0.057208424
   4  3  0     -184.6942274212    -0.0039636861   0.031128941   0.027026233
   5  4  0     -184.6953453778    -0.0011179566   0.006111775   0.006494725
 DFT CODE IS SWITCHING BACK TO THE FINE GRID
          * * *   INITIATING DIIS PROCEDURE   * * *
   6  5  0     -184.6931709993     0.0021743785   0.007147725   0.001043326
   7  6  0     -184.6931721328    -0.0000011335   0.001110204   0.001477035
   8  7  0     -184.6931743013    -0.0000021685   0.000711727   0.000578144
   9  8  0     -184.6931745448    -0.0000002435   0.000217726   0.000319625
  10  9  0     -184.6931746649    -0.0000001201   0.000134198   0.000096480

          -----------------
          DENSITY CONVERGED
          -----------------
     TIME TO FORM FOCK OPERATORS=       1.6 SECONDS (       0.2 SEC/ITER)
     TIME TO SOLVE SCF EQUATIONS=       0.0 SECONDS (       0.0 SEC/ITER)

 FINAL R-PBE ENERGY IS     -184.6931746649 AFTER  10 ITERATIONS
 DFT EXCHANGE + CORRELATION ENERGY =       -23.4170277072
 TOTAL ELECTRON NUMBER             =        24.0000480052
 ...... END OF RHF CALCULATION ......
 STEP CPU TIME =     1.66 TOTAL CPU TIME =          9.2 (      0.2 MIN)
 TOTAL WALL CLOCK TIME=          9.3 SECONDS, CPU UTILIZATION IS    98.60%
 ..... END OF 1-ELECTRON GRADIENT ......
 STEP CPU TIME =     0.00 TOTAL CPU TIME =          9.2 (      0.2 MIN)
 TOTAL WALL CLOCK TIME=          9.3 SECONDS, CPU UTILIZATION IS    98.60%
 MEMORY FOR GRID POINT CONTRIBUTIONS TO THE DFT GRADIENT=    199178 WORDS.
 STEP CPU TIME =     0.46 TOTAL CPU TIME =          9.6 (      0.2 MIN)
 TOTAL WALL CLOCK TIME=          9.8 SECONDS, CPU UTILIZATION IS    98.67%
 ...... END OF 2-ELECTRON GRADIENT ......
 STEP CPU TIME =     0.02 TOTAL CPU TIME =          9.6 (      0.2 MIN)
 TOTAL WALL CLOCK TIME=          9.8 SECONDS, CPU UTILIZATION IS    98.57%

          NSERCH=  3     ENERGY=    -184.6931747

                                 -----------------------
                                 GRADIENT (HARTREE/BOHR)
                                 -----------------------
        ATOM     ZNUC       DE/DX         DE/DY         DE/DZ
 --------------------------------------------------------------
    1  N            7.0     0.0065391    -0.0199897    -0.0744409
    2  N            7.0    -0.0739632     0.4289126    -0.0067160
    3  O            8.0     0.5994205    -0.3605672     0.0018169
    4  H            1.0    -0.0119774    -0.3746030    -0.0987999
    5  H            1.0    -0.5200191     0.3262472     0.1781399


                     --------------------
                     INTERNAL COORDINATES
                     --------------------

                 - - ATOMS - -         COORDINATE        GRADIENT
 NO.   TYPE    I  J  K  L  M  N         (ANG,DEG)     (H/B,H/RAD)
 ----------------------------------------------------------------
   1 SYM.CRD.                          -1.7331958       0.8294310
   2 SYM.CRD.                           0.2415977      -0.1408985
   3 SYM.CRD.                          -1.4013323       0.0532132
   4 SYM.CRD.                           0.6591320      -0.2201246
   5 SYM.CRD.                          -1.2595607       0.3448412
   6 SYM.CRD.                           0.9478428       0.0343951
   7 SYM.CRD.                          -0.5611518       0.0361985
   8 SYM.CRD.                           0.5109243       0.0043519
   9 SYM.CRD.                          -0.1774936      -0.0003925

 NOTE: CARTESIAN GRADIENTS ARE ALWAYS TAKEN TO TEST CONVERGENCE,
       SO THE FOLLOWING GRADIENTS ARE CARTESIAN.

          MAXIMUM GRADIENT = 0.5993956    RMS GRADIENT = 0.2879351

 NSERCH:   3  E=     -184.6931746649  GRAD. MAX=  0.5993956  R.M.S.=  0.2879351

          HESSIAN UPDATED USING THE BFGS FORMULA
             ACTUAL ENERGY CHANGE WAS  -0.5879726244
          PREDICTED ENERGY CHANGE WAS  -0.5307383375 RATIO=  1.108
          MIN SEARCH, CORRECT HESSIAN, TRYING PURE NR STEP
               NR STEP HAS LENGTH         =   0.731115
          TRIM/QA LAMBDA FOR NON-TS MODES =  -0.42115772
          TRIM/QA STEP HAS LENGTH         =   0.500000
          RADIUS OF STEP TAKEN=   0.50000  CURRENT TRUST RADIUS=   0.50000
          TRANSFORMING DISPLACEMENT FROM INTERNALS TO CARTESIANS
[...]
  17 TORSION   3  2  1  4              -0.0001785      -0.0102257

          INTERNUCLEAR DISTANCES (ANGS.)
          ------------------------------

                1 N          2 N          3 O          4 H          5 H     

   1 N       0.0000000    1.4034237 *  2.2401124 *  1.0402431 *  1.0289498 *
   2 N       1.4034237 *  0.0000000    1.2828282 *  2.1235848 *  2.0799059 *
   3 O       2.2401124 *  1.2828282 *  0.0000000    2.4387804 *  3.1636582  
   4 H       1.0402431 *  2.1235848 *  2.4387804 *  0.0000000    1.8214171 *
   5 H       1.0289498 *  2.0799059 *  3.1636582    1.8214171 *  0.0000000  

  * ... LESS THAN  3.000


          NUCLEAR ENERGY    =       68.8560543528
          ELECTRONIC ENERGY =     -253.9811838009
          TOTAL ENERGY      =     -185.1251294481

          ------------------
          MOLECULAR ORBITALS
          ------------------

                      1          2          3          4          5
                  -18.7866   -14.1224   -14.0638    -1.0570    -0.8562
                     A          A          A          A          A   
    1  N  1  S    0.000031   0.003277  -0.984390  -0.083045  -0.242506
    2  N  1  S   -0.000263   0.001588  -0.055522   0.152502   0.448397
    3  N  1  S   -0.001512  -0.007901   0.035872   0.059517   0.284315
    4  N  1  X    0.000370  -0.000697   0.000182  -0.054986  -0.029297
    5  N  1  Y   -0.000096  -0.000213   0.000130  -0.013261  -0.030209
    6  N  1  Z   -0.000001  -0.000006   0.000004  -0.000440  -0.000710
    7  N  1  X   -0.000378   0.002718  -0.001338  -0.024388  -0.017687
    8  N  1  Y    0.000206   0.000249  -0.000497  -0.008679  -0.018111
    9  N  1  Z    0.000003   0.000014  -0.000015  -0.000253  -0.000433
   10  N  2  S    0.000302  -0.984882  -0.003987  -0.192548  -0.043719
   11  N  2  S   -0.001197  -0.051751   0.000979   0.357929   0.079414
   12  N  2  S    0.010027   0.025651  -0.006652   0.135281   0.084111
   13  N  2  X    0.000319  -0.000437   0.000559  -0.053472   0.182674
   14  N  2  Y   -0.000476  -0.003262   0.000376   0.135276  -0.006307
   15  N  2  Z   -0.000008  -0.000066   0.000009   0.002505   0.000448
   16  N  2  X   -0.003655   0.002788  -0.001971   0.002074   0.102588
   17  N  2  Y    0.004011   0.004133  -0.001076   0.077807   0.023210
   18  N  2  Z    0.000068   0.000090  -0.000027   0.001543   0.000781
   19  O  3  S    0.984519  -0.000404  -0.000033  -0.200060   0.137439
   20  O  3  S    0.052103   0.001164   0.000358   0.361881  -0.250641
   21  O  3  S   -0.027131  -0.004181   0.000025   0.253943  -0.230166
   22  O  3  X    0.002232   0.000540   0.000249   0.116079  -0.037066
   23  O  3  Y   -0.001641  -0.000443   0.000061  -0.086085   0.050472
   24  O  3  Z   -0.000025  -0.000007   0.000002  -0.001337   0.000881
   25  O  3  X   -0.005134   0.000105  -0.000768   0.096243  -0.054853
   26  O  3  Y    0.004078  -0.000971  -0.000261  -0.074119   0.047145
   27  O  3  Z    0.000064  -0.000019  -0.000008  -0.001163   0.000759
   28  H  4  S   -0.000458   0.000653   0.001038   0.027709   0.103059
   29  H  4  S    0.001282   0.000381  -0.007134  -0.001307   0.008012
   30  H  5  S    0.000442   0.000199   0.001240   0.019150   0.118707
   31  H  5  S   -0.000006  -0.000379  -0.007280   0.004249   0.006005

                      6          7          8          9         10
                   -0.6217    -0.5186    -0.4443    -0.4043    -0.3352
                     A          A          A          A          A   
    1  N  1  S   -0.101143  -0.002823  -0.014823  -0.000014  -0.002197
    2  N  1  S    0.192025   0.004819   0.023727   0.000030   0.005424
    3  N  1  S    0.200054  -0.003448   0.026704   0.000024  -0.023870
    4  N  1  X    0.236894  -0.186227  -0.167715  -0.000636   0.029760
    5  N  1  Y    0.134402   0.329182  -0.097484  -0.004095  -0.105391
    6  N  1  Z    0.003373   0.005917  -0.002428   0.207933  -0.001987
    7  N  1  X    0.203618  -0.177977  -0.190890  -0.000749   0.033818
    8  N  1  Y    0.126282   0.331274  -0.090792  -0.004830  -0.069935
    9  N  1  Z    0.003107   0.005984  -0.002365   0.245262  -0.001273
   10  N  2  S    0.170410   0.016550   0.103433  -0.000001   0.081851
   11  N  2  S   -0.333066  -0.032234  -0.215928   0.000006  -0.149236
   12  N  2  S   -0.271860  -0.010510  -0.196258  -0.000009  -0.236550
   13  N  2  X   -0.142830   0.010505   0.277894  -0.001134  -0.032155
   14  N  2  Y   -0.023320   0.100531   0.030139  -0.006972   0.342254
   15  N  2  Z   -0.000916   0.002018   0.001492   0.352909   0.006660
   16  N  2  X   -0.088819   0.010643   0.207436  -0.001194   0.010143
   17  N  2  Y   -0.038739   0.094592   0.038704  -0.007414   0.351053
   18  N  2  Z   -0.001046   0.001901   0.001438   0.374978   0.006966
   19  O  3  S   -0.128916   0.037726  -0.139909   0.000007   0.036717
   20  O  3  S    0.233791  -0.069564   0.254579  -0.000012  -0.060711
   21  O  3  S    0.287248  -0.097634   0.367773  -0.000016  -0.126256
   22  O  3  X   -0.041541   0.057391  -0.142331  -0.000836   0.338943
   23  O  3  Y    0.019991   0.024728   0.274621  -0.005346   0.043632
   24  O  3  Z    0.000263   0.000668   0.004993   0.269362   0.001923
   25  O  3  X   -0.006224   0.044732  -0.126198  -0.000878   0.356221
   26  O  3  Y    0.007754   0.036324   0.260006  -0.005622   0.063436
   27  O  3  Z    0.000131   0.000856   0.004755   0.283233   0.002367
   28  H  4  S    0.160333   0.224823  -0.075255   0.000005  -0.119899
   29  H  4  S    0.039331   0.084946  -0.012981  -0.000002  -0.070856
   30  H  5  S    0.139803  -0.252279  -0.047267   0.000001   0.119203
   31  H  5  S    0.030370  -0.094378  -0.029839   0.000001   0.074189

                     11         12         13         14         15
                   -0.2595    -0.1970    -0.1039     0.0159     0.0779
                     A          A          A          A          A   
    1  N  1  S   -0.000025   0.076831   0.000016   0.155820  -0.003275
    2  N  1  S    0.000050  -0.152793  -0.000027  -0.271030   0.008145
    3  N  1  S    0.000064  -0.367803  -0.000085  -1.421706   0.023780
    4  N  1  X   -0.001242   0.153291   0.000748  -0.123183   0.089022
    5  N  1  Y   -0.007892   0.060056   0.004806  -0.034472  -0.324140
    6  N  1  Z    0.399956   0.001691  -0.243906  -0.001007  -0.006117
    7  N  1  X   -0.001636   0.204628   0.001103  -0.233633   0.203009
    8  N  1  Y   -0.010421   0.092595   0.007113  -0.062708  -0.756562
    9  N  1  Z    0.527968   0.002512  -0.361366  -0.001845  -0.014292
   10  N  2  S    0.000006  -0.091422  -0.000001  -0.010474   0.034666
   11  N  2  S   -0.000013   0.164924   0.000004   0.016985  -0.064452
   12  N  2  S   -0.000007   0.404936  -0.000021   0.108699  -0.311331
   13  N  2  X    0.000044  -0.009120  -0.001370   0.107337   0.035836
   14  N  2  Y    0.000354  -0.223303  -0.008651   0.107867  -0.039968
   15  N  2  Z   -0.017849  -0.004434   0.438025   0.002448  -0.000686
   16  N  2  X    0.000115   0.073275  -0.001757   0.166522   0.079598
   17  N  2  Y    0.000782  -0.207106  -0.011068   0.162064  -0.135815
   18  N  2  Z   -0.039386  -0.003853   0.560020   0.003696  -0.002445
   19  O  3  S    0.000001   0.012236   0.000000   0.009660  -0.019586
   20  O  3  S   -0.000001  -0.032182  -0.000001  -0.020912   0.042275
   21  O  3  S   -0.000003  -0.001952   0.000006  -0.040324   0.154512
   22  O  3  X    0.001059   0.230450   0.001068  -0.081949   0.086628
   23  O  3  Y    0.006696   0.380034   0.006730  -0.088739  -0.094145
   24  O  3  Z   -0.339768   0.008223  -0.340938  -0.001997  -0.001579
   25  O  3  X    0.001219   0.288277   0.001386  -0.117827   0.151822
   26  O  3  Y    0.007711   0.436447   0.008711  -0.110879  -0.168478
   27  O  3  Z   -0.391234   0.009516  -0.441365  -0.002542  -0.002841
   28  H  4  S   -0.000016   0.062155   0.000029   0.152279   0.149662
   29  H  4  S   -0.000012   0.197723   0.000054   0.922161   1.166417
   30  H  5  S   -0.000017   0.032382   0.000022   0.157386  -0.122665
   31  H  5  S   -0.000019   0.101155   0.000035   1.056193  -1.058531

                     16         17         18         19         20
                    0.1423     0.2254     0.5528     0.6573     0.7028
                     A          A          A          A          A   
    1  N  1  S   -0.086342   0.021773   0.065877   0.118700  -0.058709
    2  N  1  S    0.160108  -0.054521  -0.126413  -0.502280   0.256950
    3  N  1  S    0.736218  -0.145535   0.389025   0.252150  -0.009091
    4  N  1  X   -0.361984   0.064422  -0.083361  -0.010590  -0.121601
    5  N  1  Y   -0.104013   0.129797  -0.044166   0.158614   0.298848
    6  N  1  Z   -0.003190   0.002765  -0.001087   0.003114   0.005514
    7  N  1  X   -1.041331   0.185778  -0.566101   0.001183  -0.283163
    8  N  1  Y   -0.293013   0.323428  -0.221876   0.212336   0.204933
    9  N  1  Z   -0.009054   0.006971  -0.006095   0.004214   0.003151
   10  N  2  S    0.157067   0.071945  -0.137880   0.207939  -0.156793
   11  N  2  S   -0.377777  -0.158695   0.739556  -1.189523   0.894396
   12  N  2  S   -1.152070  -0.574077  -1.314475   1.628927  -1.363239
   13  N  2  X   -0.278128   0.413197  -0.003318   0.257180   0.114722
   14  N  2  Y   -0.306400  -0.203346   0.005869  -0.064542  -0.351261
   15  N  2  Z   -0.006936  -0.002722   0.000065  -0.000470  -0.006572
   16  N  2  X   -0.620138   1.001300  -0.109142  -0.142040   0.008649
   17  N  2  Y   -0.729684  -0.545464  -0.330412   0.265456  -0.168001
   18  N  2  Z   -0.016387  -0.007629  -0.006882   0.004794  -0.003296
   19  O  3  S   -0.029915  -0.123000  -0.024515   0.057609  -0.021438
   20  O  3  S    0.044682   0.287648   0.074260  -0.250149   0.044605
   21  O  3  S    0.345002   0.835722   0.339720  -0.284536   0.358614
   22  O  3  X    0.190430   0.272798  -0.019993   0.022037  -0.016369
   23  O  3  Y   -0.027251  -0.274334   0.053043  -0.116294  -0.093996
   24  O  3  Z    0.000062  -0.004567   0.000985  -0.002227  -0.001908
   25  O  3  X    0.389901   0.604009   0.162783  -0.141874   0.164790
   26  O  3  Y   -0.062983  -0.607140  -0.068744   0.115590  -0.123473
   27  O  3  Z   -0.000016  -0.010103  -0.000846   0.001838  -0.001920
   28  H  4  S    0.007907   0.109869   0.895796  -0.132244  -0.888312
   29  H  4  S   -0.009955  -0.396910  -0.531658  -0.042190   0.708380
   30  H  5  S    0.022429  -0.121560   0.775889   0.843667   0.554051
   31  H  5  S    0.362857   0.229183  -0.358873  -0.752141  -0.271041

                     21         22
                    0.8637     0.9696
                     A          A   
    1  N  1  S    0.306070   0.000047
    2  N  1  S   -1.969494  -0.000335
    3  N  1  S    3.997846   0.000789
    4  N  1  X    0.051839  -0.002528
    5  N  1  Y   -0.035280  -0.016427
    6  N  1  Z   -0.000710   0.830913
    7  N  1  X   -0.423389   0.001951
    8  N  1  Y   -0.143775   0.013221
    9  N  1  Z   -0.004130  -0.670723
   10  N  2  S   -0.062358  -0.000010
   11  N  2  S    0.454248   0.000073
   12  N  2  S   -1.924680  -0.000405
   13  N  2  X   -0.112557  -0.001887
   14  N  2  Y   -0.120934  -0.011769
   15  N  2  Z   -0.002784   0.592354
   16  N  2  X   -0.380929   0.001291
   17  N  2  Y   -0.430404   0.008612
   18  N  2  Z   -0.009697  -0.438866
   19  O  3  S    0.008992   0.000011
   20  O  3  S   -0.079494  -0.000062
   21  O  3  S    0.511918   0.000144
   22  O  3  X   -0.105318  -0.000360
   23  O  3  Y   -0.048678  -0.002137
   24  O  3  Z   -0.001311   0.107030
   25  O  3  X    0.234150   0.000012
   26  O  3  Y   -0.078722  -0.000261
   27  O  3  Z   -0.000814   0.012669
   28  H  4  S   -0.170508  -0.000024
   29  H  4  S   -0.834101  -0.000224
   30  H  5  S   -0.266897  -0.000067
   31  H  5  S   -0.669739  -0.000125

     ---------------------------------------------------------------------
     PROPERTIES FOR THE PBE      DFT FUNCTIONAL (RHF  TYPE) DENSITY MATRIX
     ---------------------------------------------------------------------

          -----------------
          ENERGY COMPONENTS
          -----------------

         WAVEFUNCTION NORMALIZATION =       1.0000000000

                ONE ELECTRON ENERGY =    -388.4024393560
                TWO ELECTRON ENERGY =     134.4212555550
           NUCLEAR REPULSION ENERGY =      68.8560543528
                                      ------------------
                       TOTAL ENERGY =    -185.1251294481

 ELECTRON-ELECTRON POTENTIAL ENERGY =     134.4212555550
  NUCLEUS-ELECTRON POTENTIAL ENERGY =    -572.7542800681
   NUCLEUS-NUCLEUS POTENTIAL ENERGY =      68.8560543528
                                      ------------------
             TOTAL POTENTIAL ENERGY =    -369.4769701603
               TOTAL KINETIC ENERGY =     184.3518407121
                 VIRIAL RATIO (V/T) =       2.0041946353

          ---------------------------------------
          MULLIKEN AND LOWDIN POPULATION ANALYSES
          ---------------------------------------

     ATOMIC MULLIKEN POPULATION IN EACH MOLECULAR ORBITAL

                      1          2          3          4          5

                  2.000000   2.000000   2.000000   2.000000   2.000000

    1            -0.000008   0.001190   1.996764   0.172832   1.124621
    2             0.001911   1.998564   0.001043   0.809709   0.338405
    3             1.998081   0.000244   0.000005   1.007682   0.366323
    4             0.000017  -0.000012   0.001085   0.004925   0.075671
    5            -0.000000   0.000013   0.001104   0.004852   0.094980

                      6          7          8          9         10

                  2.000000   2.000000   2.000000   2.000000   2.000000

    1             0.847563   1.189426   0.258834   0.413582   0.055965
    2             0.555636   0.101492   0.570315   1.006610   0.989306
    3             0.321222   0.062576   1.130143   0.579808   0.841667
    4             0.162568   0.288109   0.024339   0.000000   0.060560
    5             0.113011   0.358398   0.016369   0.000000   0.052503

                     11         12

                  2.000000   2.000000

    1             1.229387   0.144971
    2             0.000732   0.502253
    3             0.769881   1.244607
    4             0.000000   0.082326
    5             0.000000   0.025844

               ----- POPULATIONS IN EACH AO -----
                             MULLIKEN      LOWDIN
              1  N  1  S      1.98236     1.96308
              2  N  1  S      0.93626     0.80499
              3  N  1  S      0.56424     0.52961
              4  N  1  X      0.51581     0.49963
              5  N  1  Y      0.53681     0.51271
              6  N  1  Z      0.66646     0.67859
              7  N  1  X      0.57484     0.63633
              8  N  1  Y      0.68202     0.68669
              9  N  1  Z      0.97633     0.95965
             10  N  2  S      1.98499     1.96938
             11  N  2  S      1.04106     0.89968
             12  N  2  S      0.74436     0.67054
             13  N  2  X      0.46877     0.43804
             14  N  2  Y      0.64301     0.63531
             15  N  2  Z      0.41668     0.40203
             16  N  2  X      0.34464     0.50719
             17  N  2  Y      0.64169     0.78026
             18  N  2  Z      0.59077     0.60384
             19  O  3  S      1.98497     1.97102
             20  O  3  S      1.02851     0.96660
             21  O  3  S      0.96827     0.83702
             22  O  3  X      0.66325     0.65836
             23  O  3  Y      0.72699     0.72555
             24  O  3  Z      0.58966     0.58592
             25  O  3  X      0.76843     0.85142
             26  O  3  Y      0.83200     0.88977
             27  O  3  Z      0.76016     0.77010
             28  H  4  S      0.52290     0.50296
             29  H  4  S      0.17669     0.29189
             30  H  5  S      0.53408     0.51189
             31  H  5  S      0.13299     0.25996

          ----- MULLIKEN ATOMIC OVERLAP POPULATIONS -----
          (OFF-DIAGONAL ELEMENTS NEED TO BE MULTIPLIED BY 2)

             1           2           3           4           5

    1    7.0309169
    2    0.0248533   6.6313605
    3   -0.1056549   0.1934217   8.2084507
    4    0.2126912   0.0205867   0.0217343   0.4484893
    5    0.2723195   0.0057530   0.0042863  -0.0039136   0.3886275

          TOTAL MULLIKEN AND LOWDIN ATOMIC POPULATIONS
       ATOM         MULL.POP.    CHARGE          LOW.POP.     CHARGE
    1 N             7.435126   -0.435126         7.271265   -0.271265
    2 N             6.875975    0.124025         6.906266    0.093734
    3 O             8.322238   -0.322238         8.255766   -0.255766
    4 H             0.699588    0.300412         0.794856    0.205144
    5 H             0.667073    0.332927         0.771847    0.228153

          MULLIKEN SPHERICAL HARMONIC POPULATIONS
       ATOM           S       P       D      F      G      H      I    TOTAL
    1 N             3.48    3.95    0.00   0.00   0.00   0.00   0.00    7.44
    2 N             3.77    3.11    0.00   0.00   0.00   0.00   0.00    6.88
    3 O             3.98    4.34    0.00   0.00   0.00   0.00   0.00    8.32
    4 H             0.70    0.00    0.00   0.00   0.00   0.00   0.00    0.70
    5 H             0.67    0.00    0.00   0.00   0.00   0.00   0.00    0.67

          -------------------------------
          BOND ORDER AND VALENCE ANALYSIS     BOND ORDER THRESHOLD=0.050
          -------------------------------

                   BOND                       BOND                       BOND
  ATOM PAIR DIST  ORDER      ATOM PAIR DIST  ORDER      ATOM PAIR DIST  ORDER
    1   2  1.403  1.131        1   3  2.240  0.263        1   4  1.040  0.800
    1   5  1.029  0.829        2   3  1.283  1.599        2   4  2.124  0.052
    3   4  2.439  0.065

                       TOTAL       BONDED        FREE
      ATOM            VALENCE     VALENCE     VALENCE
    1 N                 3.023       3.023       0.000
    2 N                 2.790       2.790      -0.000
    3 O                 1.965       1.965       0.000
    4 H                 0.917       0.917      -0.000
    5 H                 0.875       0.875       0.000

          ---------------------
          ELECTROSTATIC MOMENTS
          ---------------------

 POINT   1           X           Y           Z (BOHR)    CHARGE
                 0.000000    0.000000   -0.000000       -0.00 (A.U.)
         DX          DY          DZ         /D/  (DEBYE)
     3.727877    0.611047    0.023306    3.777696
 ...... END OF PROPERTY EVALUATION ......
 STEP CPU TIME =     0.00 TOTAL CPU TIME =         82.6 (      1.4 MIN)
 TOTAL WALL CLOCK TIME=         84.4 SECONDS, CPU UTILIZATION IS    97.83%
  $VIB   
          IVIB=   0 IATOM=   0 ICOORD=   0 E=     -185.1251294481
  9.984428325E-06 5.418910764E-05-1.407200887E-06-2.816879175E-05 1.378354797E-05
  3.983327333E-06 3.116302093E-05-2.182161339E-05-2.788719989E-06 1.176752785E-07
 -5.408640875E-05 1.116656600E-06-1.309633278E-05 7.935366534E-06-9.040630573E-07
  3.727876899E+00 6.110474725E-01 2.330616703E-02
 ......END OF GEOMETRY SEARCH......
 STEP CPU TIME =     0.00 TOTAL CPU TIME =         82.6 (      1.4 MIN)
 TOTAL WALL CLOCK TIME=         84.4 SECONDS, CPU UTILIZATION IS    97.82%
                580000  WORDS OF DYNAMIC MEMORY USED
 EXECUTION OF GAMESS TERMINATED NORMALLY Fri Oct  4 00:49:12 2019
 DDI: 263640 bytes (0.3 MB / 0 MWords) used by master data server.

 ----------------------------------------
 CPU timing information for all processes
 ========================================
 0: 82.62 + 0.519 = 82.581
 ----------------------------------------
 ddikick.x: exited gracefully.
----- accounting info -----
Files used on the master node d12chas540.crc.nd.edu were:
-rw-r--r-- 1 wschnei1 campus 251762 Oct  4 00:49 /scratch365/wschnei1/opt-dlc.F07
Fri Oct  4 00:49:15 EDT 2019
0.440u 0.350s 1:28.14 0.8%	0+0k 0+528io 0pf+0w
