----- GAMESS execution script 'rungms' -----
This job is running on host dftfe.crc.nd.edu
under operating system Linux at Thu Feb 26 00:15:15 EST 2015
Available scratch disk space (Kbyte units) at beginning of the job is
Filesystem     1K-blocks     Used Available Use% Mounted on
/dev/sda2      147771864 22812204 117453228  17% /
GAMESS temporary binary files will be written to /tmp
GAMESS supplementary output files will be written to /tmp
Copying input file gamess.inp to your run's scratch directory...

 Distributed Data Interface kickoff program.
 Initiating 1 compute processes on 1 nodes to run the following command:
 /opt/crc/gamess/2012R1/gamess/gamess.00.x gamess 

          ******************************************************
          *         GAMESS VERSION =  1 MAY 2012 (R1)          *
          *             FROM IOWA STATE UNIVERSITY             *
          * M.W.SCHMIDT, K.K.BALDRIDGE, J.A.BOATZ, S.T.ELBERT, *
          *   M.S.GORDON, J.H.JENSEN, S.KOSEKI, N.MATSUNAGA,   *
          *          K.A.NGUYEN, S.J.SU, T.L.WINDUS,           *
          *       TOGETHER WITH M.DUPUIS, J.A.MONTGOMERY       *
          *         J.COMPUT.CHEM.  14, 1347-1363(1993)        *
          **************** 64 BIT LINUX VERSION ****************

  SINCE 1993, STUDENTS AND POSTDOCS WORKING AT IOWA STATE UNIVERSITY
  AND ALSO IN THEIR VARIOUS JOBS AFTER LEAVING ISU HAVE MADE IMPORTANT
  CONTRIBUTIONS TO THE CODE:
     IVANA ADAMOVIC, CHRISTINE AIKENS, YURI ALEXEEV, POOJA ARORA,
     ANDREY ASADCHEV, ROB BELL, PRADIPTA BANDYOPADHYAY, JONATHAN BENTZ,
     BRETT BODE, GALINA CHABAN, WEI CHEN, CHEOL HO CHOI, PAUL DAY,
     ALBERT DEFUSCO, TIM DUDLEY, DMITRI FEDOROV, GRAHAM FLETCHER,
     MARK FREITAG, KURT GLAESEMANN, DAN KEMP, GRANT MERRILL,
     NORIYUKI MINEZAWA, JONATHAN MULLIN, TAKESHI NAGATA,
     SEAN NEDD, HEATHER NETZLOFF, BOSILJKA NJEGIC, RYAN OLSON, MIKE PAK,
     JIM SHOEMAKER, LYUDMILA SLIPCHENKO, SAROM SOK, JIE SONG,
     TETSUYA TAKETSUGU, SIMON WEBB, SOOHAENG YOO, FEDERICO ZAHARIEV

  ADDITIONAL CODE HAS BEEN PROVIDED BY COLLABORATORS IN OTHER GROUPS:
     IOWA STATE UNIVERSITY:
          JOE IVANIC, LAIMUTIS BYTAUTAS, KLAUS RUEDENBERG
     UNIVERSITY OF TOKYO: KIMIHIKO HIRAO, TAKAHITO NAKAJIMA,
          TAKAO TSUNEDA, MUNEAKI KAMIYA, SUSUMU YANAGISAWA,
          KIYOSHI YAGI, MAHITO CHIBA, SEIKEN TOKURA, NAOAKI KAWAKAMI
     UNIVERSITY OF AARHUS: FRANK JENSEN
     UNIVERSITY OF IOWA: VISVALDAS KAIRYS, HUI LI
     NATIONAL INST. OF STANDARDS AND TECHNOLOGY: WALT STEVENS, DAVID GARMER
     UNIVERSITY OF PISA: BENEDETTA MENNUCCI, JACOPO TOMASI
     UNIVERSITY OF MEMPHIS: HENRY KURTZ, PRAKASHAN KORAMBATH
     UNIVERSITY OF ALBERTA: TOBY ZENG, MARIUSZ KLOBUKOWSKI
     UNIVERSITY OF NEW ENGLAND: MARK SPACKMAN
     MIE UNIVERSITY: HIROAKI UMEDA
     MICHIGAN STATE UNIVERSITY:
          KAROL KOWALSKI, MARTA WLOCH, JEFFREY GOUR, JESSE LUTZ, PIOTR PIECUCH
     UNIVERSITY OF SILESIA: MONIKA MUSIAL, STANISLAW KUCHARSKI
     FACULTES UNIVERSITAIRES NOTRE-DAME DE LA PAIX:
          OLIVIER QUINET, BENOIT CHAMPAGNE
     UNIVERSITY OF CALIFORNIA - SANTA BARBARA: BERNARD KIRTMAN
     INSTITUTE FOR MOLECULAR SCIENCE:
          KAZUYA ISHIMURA, MICHIO KATOUDA, AND SHIGERU NAGASE
     UNIVERSITY OF NOTRE DAME: DAN CHIPMAN
     KYUSHU UNIVERSITY:
          HARUYUKI NAKANO,
          FENG LONG GU, JACEK KORCHOWIEC, MARCIN MAKOWSKI, AND YURIKO AOKI,
          HIROTOSHI MORI AND EISAKU MIYOSHI
     PENNSYLVANIA STATE UNIVERSITY:
          TZVETELIN IORDANOV, CHET SWALINA, JONATHAN SKONE,
          SHARON HAMMES-SCHIFFER
     WASEDA UNIVERSITY:
          MASATO KOBAYASHI, TOMOKO AKAMA, TSUGUKI TOUMA,
          TAKESHI YOSHIKAWA, YASUHIRO IKABATA, HIROMI NAKAI
     UNIVERSITY OF NEBRASKA:
          PEIFENG SU, DEJUN SI, NANDUN THELLAMUREGE, YALI WANG, HUI LI
     UNIVERSITY OF ZURICH:
          ROBERTO PEVERATI, KIM BALDRIDGE
     N. COPERNICUS UNIVERSITY AND JACKSON STATE UNIVERSITY:
          MARIA BARYSZ

 EXECUTION OF GAMESS BEGUN Thu Feb 26 00:15:15 2015

            ECHO OF THE FIRST FEW INPUT CARDS -
 INPUT CARD> $BASIS GBASIS=PC1 $END                                                         
 INPUT CARD> $CONTRL COORD=ZMT ISPHER=1 RUNTYP=ENERGY DFTTYP=PBE $END                       
 INPUT CARD>                                                                                
 INPUT CARD> $DATA                                                                          
 INPUT CARD>Title                                                                           
 INPUT CARD>Cnv 2                                                                           
 INPUT CARD>                                                                                
 INPUT CARD>S                                                                               
 INPUT CARD>O 1 1.40                                                                        
 INPUT CARD>O 1 1.40 2 100.0                                                                
 INPUT CARD> $END                                                                           
    1000000 WORDS OF MEMORY AVAILABLE

     BASIS OPTIONS
     -------------
     GBASIS=PC1          IGAUSS=       0      POLAR=NONE    
     NDFUNC=       0     NFFUNC=       0     DIFFSP=       F
     NPFUNC=       0      DIFFS=       F     BASNAM=        


     RUN TITLE
     ---------
 Title                                                                           

 THE POINT GROUP OF THE MOLECULE IS CNV     
 THE ORDER OF THE PRINCIPAL AXIS IS     2

 YOUR FULLY SUBSTITUTED Z-MATRIX IS
 S   
 O      1   1.4000000
 O      1   1.4000000  2  100.0000

 THE MOMENTS OF INERTIA ARE (AMU-ANGSTROM**2)
 IXX=    12.949   IYY=    36.794   IZZ=    49.743

 ATOM      ATOMIC                      COORDINATES (BOHR)
           CHARGE         X                   Y                   Z
 S          16.0     0.0000000000        0.0000000000       -0.8505206771
 O           8.0    -2.0266597287        0.0000000000        0.8500487538
 O           8.0     2.0266597287        0.0000000000        0.8500487538

          INTERNUCLEAR DISTANCES (ANGS.)
          ------------------------------

                1 S          2 O          3 O     

   1 S       0.0000000    1.4000000 *  1.4000000 *
   2 O       1.4000000 *  0.0000000    2.1449244 *
   3 O       1.4000000 *  2.1449244 *  0.0000000  

  * ... LESS THAN  3.000


     ATOMIC BASIS SET
     ----------------
 THE CONTRACTED PRIMITIVE FUNCTIONS HAVE BEEN UNNORMALIZED
 THE CONTRACTED BASIS FUNCTIONS ARE NOW NORMALIZED TO UNITY

  SHELL TYPE  PRIMITIVE        EXPONENT          CONTRACTION COEFFICIENT(S)

 S         

      1   S       1         55510.0000000    0.000587229760
      1   S       2          8326.7000000    0.004532413947
      1   S       3          1895.6000000    0.023265261648
      1   S       4           536.7700000    0.089696133027
      1   S       5           174.6700000    0.254098332277
      1   S       6            62.5780000    0.438665087637
      1   S       7            23.5730000    0.314547135094
      1   S       8             5.8908000    0.032727897102

      2   S       9          8326.7000000   -0.000019755715
      2   S      10          1895.6000000   -0.000043822381
      2   S      11           536.7700000   -0.001730264906
      2   S      12           174.6700000   -0.009381263460
      2   S      13            62.5780000   -0.064050766303
      2   S      14            23.5730000   -0.082478179196
      2   S      15             5.8908000    0.478342956889
      2   S      16             2.1852000    0.626896670208

      3   S      17          1895.6000000    0.000016227260
      3   S      18           536.7700000    0.000191135619
      3   S      19           174.6700000    0.001952069674
      3   S      20            62.5780000    0.010578701087
      3   S      21            23.5730000    0.022164934551
      3   S      22             5.8908000   -0.184968323118
      3   S      23             2.1852000   -0.480920750976
      3   S      24             0.4528200    1.243822243872

      4   S      25             0.1620200    1.000000000000

      5   P      26           395.4500000    0.004642761329
      5   P      27            92.8340000    0.036023396489
      5   P      28            29.2660000    0.149058869978
      5   P      29            10.5950000    0.360033266263
      5   P      30             4.0272000    0.455756476221
      5   P      31             1.5484000    0.206167664178

      6   P      32            92.8340000    0.000169901442
      6   P      33            29.2660000   -0.002541839934
      6   P      34            10.5950000   -0.007867614595
      6   P      35             4.0272000   -0.037231009184
      6   P      36             1.5484000    0.161417246830
      6   P      37             0.4613400    0.902230419976

      7   P      38             0.1313100    1.000000000000

      8   D      39             0.5500000    1.000000000000

 O         

     15   S      40          2306.7000000    0.005424388755
     15   S      41           347.1500000    0.040474749465
     15   S      42            78.8900000    0.180219634554
     15   S      43            21.8760000    0.462370311787
     15   S      44             6.6646000    0.454888396263

     16   S      45           347.1500000   -0.000655003786
     16   S      46            78.8900000   -0.005362052952
     16   S      47            21.8760000   -0.074902158894
     16   S      48             6.6646000   -0.181442579655
     16   S      49             1.0669000    1.102006874042

     17   S      50             0.3070000    1.000000000000

     18   P      51            17.0220000    0.068979967443
     18   P      52             3.6838000    0.351985516325
     18   P      53             0.9923400    0.724036547822

     19   P      54             0.2448700    1.000000000000

     20   D      55             1.0000000    1.000000000000

 TOTAL NUMBER OF BASIS SET SHELLS             =   20
 NUMBER OF CARTESIAN GAUSSIAN BASIS FUNCTIONS =   49
 NOTE: THIS RUN WILL RESTRICT THE MO VARIATION SPACE TO SPHERICAL HARMONICS.
 THE NUMBER OF ORBITALS KEPT IN THE VARIATIONAL SPACE WILL BE PRINTED LATER.
 NUMBER OF ELECTRONS                          =   32
 CHARGE OF MOLECULE                           =    0
 SPIN MULTIPLICITY                            =    1
 NUMBER OF OCCUPIED ORBITALS (ALPHA)          =   16
 NUMBER OF OCCUPIED ORBITALS (BETA )          =   16
 TOTAL NUMBER OF ATOMS                        =    3
 THE NUCLEAR REPULSION ENERGY IS      112.5533675983

     LEBEDEV GRID-BASED DFT OPTIONS
     ------------------------------
     DFTTYP=PBE     
     NRAD  =      96     NLEB  =     302
     NRAD0 =      24     NLEB0 =     110
     SWOFF =    5.00E-03 (PURE SCF -> DFT)
     SWITCH=    3.00E-04 (COARSE -> TIGHT GRID)
     THRESH=    0.00E+00 GTHRE=    1.00E+00

 GRIMME'S EMPIRICAL DISPERSION CORRECTION= F

     $CONTRL OPTIONS
     ---------------
 SCFTYP=RHF          RUNTYP=ENERGY       EXETYP=RUN     
 MPLEVL=       0     CITYP =NONE         CCTYP =NONE         VBTYP =NONE    
 DFTTYP=PBE          TDDFT =NONE    
 MULT  =       1     ICHARG=       0     NZVAR =       0     COORD =ZMT     
 PP    =NONE         RELWFN=NONE         LOCAL =NONE         NUMGRD=       F
 ISPHER=       1     NOSYM =       0     MAXIT =      30     UNITS =ANGS    
 PLTORB=       F     MOLPLT=       F     AIMPAC=       F     FRIEND=        
 NPRINT=       7     IREST =       0     GEOM  =INPUT   
 NORMF =       0     NORMP =       0     ITOL  =      20     ICUT  =       9
 INTTYP=BEST         GRDTYP=BEST         QMTTOL= 1.0E-06

     $SYSTEM OPTIONS
     ---------------
  REPLICATED MEMORY=     1000000 WORDS (ON EVERY NODE).
 DISTRIBUTED MEMDDI=           0 MILLION WORDS IN AGGREGATE,
 MEMDDI DISTRIBUTED OVER   1 PROCESSORS IS           0 WORDS/PROCESSOR.
 TOTAL MEMORY REQUESTED ON EACH PROCESSOR=     1000000 WORDS.
 TIMLIM=      525600.00 MINUTES, OR     365.0 DAYS.
 PARALL= F  BALTYP=  DLB     KDIAG=    0  COREFL= F
 MXSEQ2=     300 MXSEQ3=     150

          ----------------
          PROPERTIES INPUT
          ----------------

     MOMENTS            FIELD           POTENTIAL          DENSITY
 IEMOM =       1   IEFLD =       0   IEPOT =       0   IEDEN =       0
 WHERE =COMASS     WHERE =NUCLEI     WHERE =NUCLEI     WHERE =NUCLEI  
 OUTPUT=BOTH       OUTPUT=BOTH       OUTPUT=BOTH       OUTPUT=BOTH    
 IEMINT=       0   IEFINT=       0                     IEDINT=       0
                                                       MORB  =       0
          EXTRAPOLATION IN EFFECT
          DIIS IN EFFECT
 ORBITAL PRINTING OPTION: NPREO=     1    49     2     1

     -------------------------------
     INTEGRAL TRANSFORMATION OPTIONS
     -------------------------------
     NWORD  =            0
     CUTOFF = 1.0E-09     MPTRAN =       0
     DIRTRF =       F     AOINTS =DUP     

          ----------------------
          INTEGRAL INPUT OPTIONS
          ----------------------
 NOPK  =       1 NORDER=       0 SCHWRZ=       F

   --- ENCODED Z MATRIX ---
 COORD  TYPE   I   J   K   L   M   N
    1      1    3   1
    2      1    2   1
    3      2    2   1   3

 THE DETERMINANT OF THE G MATRIX IS 10**(    -4)

 THE DETERMINANT OF THE G MATRIX IS 10**(    -4)
 * * * WARNING * * *
 YOUR B MATRIX HAS A SMALL DETERMINANT.
 THIS SUGGESTS YOU MAY HAVE BADLY CHOSEN COORDINATES.

     ------------------------------------------
     THE POINT GROUP IS CNV, NAXIS= 2, ORDER= 4
     ------------------------------------------

 -- VARIATIONAL SPACE WILL BE RESTRICTED TO PURE SPHERICAL HARMONICS ONLY --
 AFTER EXCLUDING CONTAMINANT COMBINATIONS FROM THE CARTESIAN GAUSSIAN BASIS
 SET, THE NUMBER OF SPHERICAL HARMONICS KEPT IN THE VARIATION SPACE IS   46

     DIMENSIONS OF THE SYMMETRY SUBSPACES ARE
 A1  =   19     A2  =    5     B1  =   14     B2  =    8

 ..... DONE SETTING UP THE RUN .....
 STEP CPU TIME =     0.01 TOTAL CPU TIME =        0.0 (    0.0 MIN)
 TOTAL WALL CLOCK TIME=        0.0 SECONDS, CPU UTILIZATION IS  50.00%

          ********************
          1 ELECTRON INTEGRALS
          ********************
 ...... END OF ONE-ELECTRON INTEGRALS ......
 STEP CPU TIME =     0.00 TOTAL CPU TIME =        0.0 (    0.0 MIN)
 TOTAL WALL CLOCK TIME=        0.0 SECONDS, CPU UTILIZATION IS  50.00%

          -------------
          GUESS OPTIONS
          -------------
          GUESS =HUCKEL            NORB  =       0          NORDER=       0
          MIX   =       F          PRTMO =       F          PUNMO =       F
          TOLZ  = 1.0E-08          TOLE  = 1.0E-05
          SYMDEN=       F          PURIFY=       F

 INITIAL GUESS ORBITALS GENERATED BY HUCKEL   ROUTINE.
 HUCKEL GUESS REQUIRES     21583 WORDS.

 STATISTICS FOR GENERATION OF SYMMETRY ORBITAL -Q- MATRIX
 NUMBER OF CARTESIAN ATOMIC ORBITALS=         49
 NUMBER OF SPHERICAL CONTAMINANTS DROPPED=     3
 NUMBER OF LINEARLY DEPENDENT MOS DROPPED=     0
 TOTAL NUMBER OF MOS IN VARIATION SPACE=      46

 SYMMETRIES FOR INITIAL GUESS ORBITALS FOLLOW.   BOTH SET(S).
    16 ORBITALS ARE OCCUPIED (    7 CORE ORBITALS).
     8=A1       9=B1      10=A1      11=B2      12=A1      13=B1      14=A2  
    15=B1      16=A1      17=B2      18=B1      19=A1      20=A1      21=A1  
    22=A1      23=A1      24=A1      25=A1      26=A1  
 ...... END OF INITIAL ORBITAL SELECTION ......
 STEP CPU TIME =     0.01 TOTAL CPU TIME =        0.0 (    0.0 MIN)
 TOTAL WALL CLOCK TIME=        0.0 SECONDS, CPU UTILIZATION IS 100.00%

                    ----------------------
                    AO INTEGRAL TECHNOLOGY
                    ----------------------
     S,P,L SHELL ROTATED AXIS INTEGRALS, REPROGRAMMED BY
        KAZUYA ISHIMURA (IMS) AND JOSE SIERRA (SYNSTAR).
     S,P,D,L SHELL ROTATED AXIS INTEGRALS PROGRAMMED BY
        KAZUYA ISHIMURA (INSTITUTE FOR MOLECULAR SCIENCE).
     S,P,D,F,G SHELL TO TOTAL QUARTET ANGULAR MOMENTUM SUM 5,
        ERIC PROGRAM BY GRAHAM FLETCHER (ELORET AND NASA ADVANCED
        SUPERCOMPUTING DIVISION, AMES RESEARCH CENTER).
     S,P,D,F,G,L SHELL GENERAL RYS QUADRATURE PROGRAMMED BY
        MICHEL DUPUIS (PACIFIC NORTHWEST NATIONAL LABORATORY).

          --------------------
          2 ELECTRON INTEGRALS
          --------------------

 THE -PK- OPTION IS OFF, THE INTEGRALS ARE NOT IN SUPERMATRIX FORM.
 STORING   15000 INTEGRALS/RECORD ON DISK, USING 12 BYTES/INTEGRAL.
 TWO ELECTRON INTEGRAL EVALUATION REQUIRES   90606 WORDS OF MEMORY.
 II,JST,KST,LST =  1  1  1  1 NREC =         1 INTLOC =    1
 II,JST,KST,LST =  2  1  1  1 NREC =         1 INTLOC =    2
 II,JST,KST,LST =  3  1  1  1 NREC =         1 INTLOC =    7
 II,JST,KST,LST =  4  1  1  1 NREC =         1 INTLOC =   22
 II,JST,KST,LST =  5  1  1  1 NREC =         1 INTLOC =   56
 II,JST,KST,LST =  6  1  1  1 NREC =         1 INTLOC =  125
 II,JST,KST,LST =  7  1  1  1 NREC =         1 INTLOC =  329
 II,JST,KST,LST =  8  1  1  1 NREC =         1 INTLOC =  776
 II,JST,KST,LST =  9  1  1  1 NREC =         1 INTLOC = 2864
 II,JST,KST,LST = 10  1  1  1 NREC =         1 INTLOC = 2864
 II,JST,KST,LST = 11  1  1  1 NREC =         1 INTLOC = 2864
 II,JST,KST,LST = 12  1  1  1 NREC =         1 INTLOC = 2864
 II,JST,KST,LST = 13  1  1  1 NREC =         1 INTLOC = 2864
 II,JST,KST,LST = 14  1  1  1 NREC =         1 INTLOC = 2864
 II,JST,KST,LST = 15  1  1  1 NREC =         1 INTLOC = 2864
 II,JST,KST,LST = 16  1  1  1 NREC =         1 INTLOC = 5120
 II,JST,KST,LST = 17  1  1  1 NREC =         1 INTLOC = 8452
 II,JST,KST,LST = 18  1  1  1 NREC =         1 INTLOC =12923
 II,JST,KST,LST = 19  1  1  1 NREC =         3 INTLOC = 1272
 II,JST,KST,LST = 20  1  1  1 NREC =         5 INTLOC = 2703
 TOTAL NUMBER OF NONZERO TWO-ELECTRON INTEGRALS =              181965
         13 INTEGRAL RECORDS WERE STORED ON DISK FILE  8.
  ...... END OF TWO-ELECTRON INTEGRALS .....
 STEP CPU TIME =     0.16 TOTAL CPU TIME =        0.2 (    0.0 MIN)
 TOTAL WALL CLOCK TIME=        0.2 SECONDS, CPU UTILIZATION IS  94.74%

          --------------------------
               R-PBE SCF CALCULATION
          --------------------------

     NUCLEAR ENERGY =       112.5533675983
     MAXIT =   30     NPUNCH=    2
     EXTRAP=T  DAMP=F  SHIFT=F  RSTRCT=F  DIIS=T  DEM=F  SOSCF=F
         DENSITY MATRIX CONVERGENCE THRESHOLD=  1.00E-05
     COARSE -> FINE DFT GRID SWITCH THRESHOLD=  3.00E-04 (SWITCH IN $DFT)
                   HF -> DFT SWITCH THRESHOLD=  5.00E-03 (SWOFF IN $DFT)
     MEMORY REQUIRED FOR RHF ITERS=    183108 WORDS.

 DFT CODE IS SWITCHING FROM THE FINE GRID NRAD= 96,  NLEB=  302
                      TO THE COARSE GRID NRAD0= 24, NLEB0=  110

     EXCHANGE FUNCTIONAL   =PBE       
     CORRELATION FUNCTIONAL=PBE       
     DFT THRESHOLD         =.460E-07
     GRID CHANGE THRESHOLD =.300E-03
 FOR AN EULER-MACLAURIN QUADRATURE USING  96 RADIAL POINTS:
 SMALLEST GAUSSIAN PRIMITIVE EXPONENT=        0.1313100000 OF TYPE -P-
 ON ATOM NUMBER   1 HAS RADIAL NORMALIZATION=  1.000000
  LARGEST GAUSSIAN PRIMITIVE EXPONENT=    55510.0000000000 OF TYPE -S-
 ON ATOM NUMBER   1 HAS RADIAL NORMALIZATION=  0.999999
 DFT IS SWITCHED OFF, PERFORMING PURE SCF UNTIL SWOFF THRESHOLD IS REACHED.

 ITER EX DEM     TOTAL ENERGY        E CHANGE  DENSITY CHANGE    DIIS ERROR
   1  0  0     -546.0537469005  -546.0537469005   0.342867206   1.352461795
          * * *   INITIATING DIIS PROCEDURE   * * *
   2  1  0     -546.9266291333    -0.8728822327   0.356130125   0.205197105
   3  2  0     -547.0140320614    -0.0874029282   0.100220558   0.199320534
   4  3  0     -547.0929767924    -0.0789447310   0.010215236   0.012933171
   5  4  0     -547.0935755137    -0.0005987213   0.008586858   0.004445062
   6  5  0     -547.0936407648    -0.0000652510   0.001458621   0.001440787
 CONVERGED TO SWOFF, SO DFT CALCULATION IS NOW SWITCHED ON.
          * * *   INITIATING DIIS PROCEDURE   * * *
   7  6  0     -548.2063114866    -1.1126707218   0.210558737   0.106878145
   8  7  0     -548.2173887849    -0.0110772983   0.173744952   0.084310338
   9  8  0     -548.2142560872     0.0031326977   0.066242566   0.105365780
  10  9  0     -548.2379153226    -0.0236592354   0.015568218   0.011699368
  11 10  0     -548.2382535307    -0.0003382081   0.000567913   0.001052756
  12 11  0     -548.2382555295    -0.0000019988   0.000440823   0.000263918
  13 12  0     -548.2382557126    -0.0000001831   0.000032420   0.000034027
 DFT CODE IS SWITCHING BACK TO THE FINE GRID
          * * *   INITIATING DIIS PROCEDURE   * * *
  14 13  0     -548.2177435416     0.0205121710   0.005464583   0.008244121
  15 14  0     -548.2178687614    -0.0001252198   0.003951003   0.003668113
  16 15  0     -548.2178471651     0.0000215963   0.003380933   0.004670543
  17 16  0     -548.2178885261    -0.0000413610   0.000730146   0.000572104
  18 17  0     -548.2178894850    -0.0000009589   0.000082233   0.000066215
  19 18  0     -548.2178894988    -0.0000000138   0.000006249   0.000003728
  20 19  0     -548.2178894989    -0.0000000001   0.000001755   0.000000835
  21 20  0     -548.2178894989     0.0000000000   0.000000089   0.000000068

          -----------------
          DENSITY CONVERGED
          -----------------
     TIME TO FORM FOCK OPERATORS=       4.5 SECONDS (       0.2 SEC/ITER)
     TIME TO SOLVE SCF EQUATIONS=       0.0 SECONDS (       0.0 SEC/ITER)

 FINAL R-PBE ENERGY IS     -548.2178894989 AFTER  21 ITERATIONS
 DFT EXCHANGE + CORRELATION ENERGY =       -42.6511394271
 TOTAL ELECTRON NUMBER             =        31.9999925667

          ------------
          EIGENVECTORS
          ------------

                      1          2          3          4          5
                  -88.2019   -18.7725   -18.7725    -7.8331    -5.8531
                     A1         B1         A1         A1         B1  
    1  S  1  S    1.002984   0.000000  -0.000079  -0.273989   0.000000
    2  S  1  S   -0.010245   0.000000  -0.000322   1.039585   0.000000
    3  S  1  S    0.001916   0.000000  -0.001163   0.042000   0.000000
    4  S  1  S   -0.000691   0.000000   0.011916  -0.011280   0.000000
    5  S  1  X    0.000000  -0.000132   0.000000   0.000000   0.996320
    6  S  1  Y    0.000000   0.000000   0.000000   0.000000   0.000000
    7  S  1  Z    0.000038   0.000000  -0.000001   0.010046   0.000000
    8  S  1  X    0.000000  -0.001122   0.000000   0.000000   0.010278
    9  S  1  Y    0.000000   0.000000   0.000000   0.000000   0.000000
   10  S  1  Z    0.000206   0.000000   0.001458   0.002139   0.000000
   11  S  1  X    0.000000  -0.003854   0.000000   0.000000  -0.000243
   12  S  1  Y    0.000000   0.000000   0.000000   0.000000   0.000000
   13  S  1  Z   -0.000016   0.000000   0.005253  -0.000628   0.000000
   14  S  1 XX    0.000083   0.000000   0.000361   0.000784   0.000000
   15  S  1 YY   -0.000093   0.000000  -0.000642  -0.000706   0.000000
   16  S  1 ZZ    0.000010   0.000000   0.000281  -0.000078   0.000000
   17  S  1 XY    0.000000   0.000000   0.000000   0.000000   0.000000
   18  S  1 XZ    0.000000   0.000235   0.000000   0.000000   0.001281
   19  S  1 YZ    0.000000   0.000000   0.000000   0.000000   0.000000
   20  O  2  S    0.000014   0.703232   0.703275  -0.000198   0.000548
   21  O  2  S    0.000018   0.026023   0.026184  -0.000229  -0.000528
   22  O  2  S   -0.000133  -0.012005  -0.014619  -0.000076   0.000131
   23  O  2  X   -0.000062   0.001028   0.000719  -0.000278  -0.000682
   24  O  2  Y    0.000000   0.000000   0.000000   0.000000   0.000000
   25  O  2  Z    0.000048  -0.000887  -0.000683   0.000201   0.000702
   26  O  2  X   -0.000144  -0.002358  -0.003036  -0.001053   0.000080
   27  O  2  Y    0.000000   0.000000   0.000000   0.000000   0.000000
   28  O  2  Z    0.000148   0.002056   0.002135   0.001170  -0.000073
   29  O  2 XX   -0.000053  -0.000274  -0.000021  -0.000066  -0.000130
   30  O  2 YY    0.000076   0.000289   0.000056   0.000129   0.000369
   31  O  2 ZZ   -0.000023  -0.000015  -0.000035  -0.000063  -0.000239
   32  O  2 XY    0.000000   0.000000   0.000000   0.000000   0.000000
   33  O  2 XZ    0.000128   0.000126   0.000392   0.000187   0.000612
   34  O  2 YZ    0.000000   0.000000   0.000000   0.000000   0.000000
   35  O  3  S    0.000014  -0.703232   0.703275  -0.000198  -0.000548
   36  O  3  S    0.000018  -0.026023   0.026184  -0.000229   0.000528
   37  O  3  S   -0.000133   0.012005  -0.014619  -0.000076  -0.000131
   38  O  3  X    0.000062   0.001028  -0.000719   0.000278  -0.000682
   39  O  3  Y    0.000000   0.000000   0.000000   0.000000   0.000000
   40  O  3  Z    0.000048   0.000887  -0.000683   0.000201  -0.000702
   41  O  3  X    0.000144  -0.002358   0.003036   0.001053   0.000080
   42  O  3  Y    0.000000   0.000000   0.000000   0.000000   0.000000
   43  O  3  Z    0.000148  -0.002056   0.002135   0.001170   0.000073
   44  O  3 XX   -0.000053   0.000274  -0.000021  -0.000066   0.000130
   45  O  3 YY    0.000076  -0.000289   0.000056   0.000129  -0.000369
   46  O  3 ZZ   -0.000023   0.000015  -0.000035  -0.000063   0.000239
   47  O  3 XY    0.000000   0.000000   0.000000   0.000000   0.000000
   48  O  3 XZ   -0.000128   0.000126  -0.000392  -0.000187   0.000612
   49  O  3 YZ    0.000000   0.000000   0.000000   0.000000   0.000000

                      6          7          8          9         10
                   -5.8529    -5.8470    -1.0926    -0.9568    -0.5758
                     B2         A1         A1         B1         A1  
    1  S  1  S    0.000000   0.002907   0.052696   0.000000   0.065105
    2  S  1  S    0.000000  -0.011152  -0.150817   0.000000  -0.180692
    3  S  1  S    0.000000   0.000020   0.306399   0.000000   0.416589
    4  S  1  S    0.000000  -0.000295   0.113689   0.000000   0.403135
    5  S  1  X    0.000000   0.000000   0.000000   0.139724   0.000000
    6  S  1  Y    0.996671   0.000000   0.000000   0.000000   0.000000
    7  S  1  Z    0.000000   0.996507  -0.085766   0.000000   0.089350
    8  S  1  X    0.000000   0.000000   0.000000  -0.270964   0.000000
    9  S  1  Y    0.009601   0.000000   0.000000   0.000000   0.000000
   10  S  1  Z    0.000000   0.009534   0.156121   0.000000  -0.188781
   11  S  1  X    0.000000   0.000000   0.000000  -0.029410   0.000000
   12  S  1  Y   -0.000364   0.000000   0.000000   0.000000   0.000000
   13  S  1  Z    0.000000  -0.000338  -0.004562   0.000000  -0.110800
   14  S  1 XX    0.000000  -0.000401   0.025777   0.000000   0.002296
   15  S  1 YY    0.000000  -0.000483  -0.037152   0.000000   0.025227
   16  S  1 ZZ    0.000000   0.000884   0.011375   0.000000  -0.027523
   17  S  1 XY    0.000000   0.000000   0.000000   0.000000   0.000000
   18  S  1 XZ    0.000000   0.000000   0.000000  -0.098141   0.000000
   19  S  1 YZ    0.000645   0.000000   0.000000   0.000000   0.000000
   20  O  2  S    0.000000  -0.000468  -0.119779  -0.146093   0.091648
   21  O  2  S    0.000000   0.000442   0.234942   0.291584  -0.186407
   22  O  2  S    0.000000   0.000362   0.248485   0.320632  -0.306194
   23  O  2  X    0.000000   0.000800   0.107846   0.077383   0.064319
   24  O  2  Y    0.000134   0.000000   0.000000   0.000000   0.000000
   25  O  2  Z    0.000000  -0.000561  -0.079155  -0.090938  -0.137671
   26  O  2  X    0.000000   0.000025   0.033517   0.021090   0.027203
   27  O  2  Y   -0.000089   0.000000   0.000000   0.000000   0.000000
   28  O  2  Z    0.000000  -0.000228  -0.025474  -0.025829  -0.062129
   29  O  2 XX    0.000000   0.000296   0.005479   0.000458  -0.001163
   30  O  2 YY    0.000000  -0.000329  -0.006430  -0.003098  -0.005045
   31  O  2 ZZ    0.000000   0.000032   0.000951   0.002641   0.006208
   32  O  2 XY    0.000118   0.000000   0.000000   0.000000   0.000000
   33  O  2 XZ    0.000000  -0.000604  -0.014200  -0.009231  -0.008916
   34  O  2 YZ   -0.000128   0.000000   0.000000   0.000000   0.000000
   35  O  3  S    0.000000  -0.000468  -0.119779   0.146093   0.091648
   36  O  3  S    0.000000   0.000442   0.234942  -0.291584  -0.186407
   37  O  3  S    0.000000   0.000362   0.248485  -0.320632  -0.306194
   38  O  3  X    0.000000  -0.000800  -0.107846   0.077383  -0.064319
   39  O  3  Y    0.000134   0.000000   0.000000   0.000000   0.000000
   40  O  3  Z    0.000000  -0.000561  -0.079155   0.090938  -0.137671
   41  O  3  X    0.000000  -0.000025  -0.033517   0.021090  -0.027203
   42  O  3  Y   -0.000089   0.000000   0.000000   0.000000   0.000000
   43  O  3  Z    0.000000  -0.000228  -0.025474   0.025829  -0.062129
   44  O  3 XX    0.000000   0.000296   0.005479  -0.000458  -0.001163
   45  O  3 YY    0.000000  -0.000329  -0.006430   0.003098  -0.005045
   46  O  3 ZZ    0.000000   0.000032   0.000951  -0.002641   0.006208
   47  O  3 XY   -0.000118   0.000000   0.000000   0.000000   0.000000
   48  O  3 XZ    0.000000   0.000604   0.014200  -0.009231   0.008916
   49  O  3 YZ   -0.000128   0.000000   0.000000   0.000000   0.000000

                     11         12         13         14         15
                   -0.4638    -0.4429    -0.4257    -0.3178    -0.3018
                     B2         A1         B1         A2         A1  
    1  S  1  S    0.000000   0.001093   0.000000   0.000000   0.015964
    2  S  1  S    0.000000   0.027588   0.000000   0.000000  -0.084669
    3  S  1  S    0.000000   0.047755   0.000000   0.000000   0.054032
    4  S  1  S    0.000000  -0.226685   0.000000   0.000000   0.486959
    5  S  1  X    0.000000   0.000000  -0.168970   0.000000   0.000000
    6  S  1  Y   -0.206472   0.000000   0.000000   0.000000   0.000000
    7  S  1  Z    0.000000  -0.173552   0.000000   0.000000   0.117975
    8  S  1  X    0.000000   0.000000   0.400637   0.000000   0.000000
    9  S  1  Y    0.479173   0.000000   0.000000   0.000000   0.000000
   10  S  1  Z    0.000000   0.403021   0.000000   0.000000  -0.275762
   11  S  1  X    0.000000   0.000000   0.080103   0.000000   0.000000
   12  S  1  Y    0.228396   0.000000   0.000000   0.000000   0.000000
   13  S  1  Z    0.000000   0.111998   0.000000   0.000000  -0.109635
   14  S  1 XX    0.000000  -0.065799   0.000000   0.000000  -0.143522
   15  S  1 YY    0.000000  -0.012403   0.000000   0.000000   0.049755
   16  S  1 ZZ    0.000000   0.078203   0.000000   0.000000   0.093767
   17  S  1 XY    0.000000   0.000000   0.000000  -0.135650   0.000000
   18  S  1 XZ    0.000000   0.000000   0.041704   0.000000   0.000000
   19  S  1 YZ    0.067905   0.000000   0.000000   0.000000   0.000000
   20  O  2  S    0.000000   0.052353  -0.069925   0.000000  -0.000790
   21  O  2  S    0.000000  -0.105771   0.139288   0.000000  -0.001751
   22  O  2  S    0.000000  -0.187851   0.282543   0.000000  -0.023753
   23  O  2  X    0.000000   0.342866  -0.195193   0.000000   0.043250
   24  O  2  Y    0.304980   0.000000   0.000000   0.467262   0.000000
   25  O  2  Z    0.000000   0.041395   0.313215   0.000000   0.413345
   26  O  2  X    0.000000   0.203280  -0.106478   0.000000   0.037450
   27  O  2  Y    0.171535   0.000000   0.000000   0.331399   0.000000
   28  O  2  Z    0.000000   0.023739   0.172146   0.000000   0.305478
   29  O  2 XX    0.000000   0.018994   0.001958   0.000000   0.007636
   30  O  2 YY    0.000000  -0.006310   0.009160   0.000000   0.005151
   31  O  2 ZZ    0.000000  -0.012684  -0.011118   0.000000  -0.012787
   32  O  2 XY    0.019062   0.000000   0.000000   0.016655   0.000000
   33  O  2 XZ    0.000000  -0.006416   0.012691   0.000000   0.012509
   34  O  2 YZ   -0.015356   0.000000   0.000000  -0.017490   0.000000
   35  O  3  S    0.000000   0.052353   0.069925   0.000000  -0.000790
   36  O  3  S    0.000000  -0.105771  -0.139288   0.000000  -0.001751
   37  O  3  S    0.000000  -0.187851  -0.282543   0.000000  -0.023753
   38  O  3  X    0.000000  -0.342866  -0.195193   0.000000  -0.043250
   39  O  3  Y    0.304980   0.000000   0.000000  -0.467262   0.000000
   40  O  3  Z    0.000000   0.041395  -0.313215   0.000000   0.413345
   41  O  3  X    0.000000  -0.203280  -0.106478   0.000000  -0.037450
   42  O  3  Y    0.171535   0.000000   0.000000  -0.331399   0.000000
   43  O  3  Z    0.000000   0.023739  -0.172146   0.000000   0.305478
   44  O  3 XX    0.000000   0.018994  -0.001958   0.000000   0.007636
   45  O  3 YY    0.000000  -0.006310  -0.009160   0.000000   0.005151
   46  O  3 ZZ    0.000000  -0.012684   0.011118   0.000000  -0.012787
   47  O  3 XY   -0.019062   0.000000   0.000000   0.016655   0.000000
   48  O  3 XZ    0.000000   0.006416   0.012691   0.000000  -0.012509
   49  O  3 YZ   -0.015356   0.000000   0.000000   0.017490   0.000000

                     16         17         18         19         20
                   -0.2679    -0.1533     0.0079     0.0789     0.3357
                     B1         B2         B1         A1         B2  
    1  S  1  S    0.000000   0.000000   0.000000   0.020399   0.000000
    2  S  1  S    0.000000   0.000000   0.000000  -0.155760   0.000000
    3  S  1  S    0.000000   0.000000   0.000000   0.021928   0.000000
    4  S  1  S    0.000000   0.000000   0.000000   1.325241   0.000000
    5  S  1  X   -0.009761   0.000000  -0.154211   0.000000   0.000000
    6  S  1  Y    0.000000  -0.206626   0.000000   0.000000   0.286391
    7  S  1  Z    0.000000   0.000000   0.000000  -0.094859   0.000000
    8  S  1  X    0.016487   0.000000   0.390515   0.000000   0.000000
    9  S  1  Y    0.000000   0.526318   0.000000   0.000000  -1.099094
   10  S  1  Z    0.000000   0.000000   0.000000   0.252870   0.000000
   11  S  1  X    0.170081   0.000000   1.045637   0.000000   0.000000
   12  S  1  Y    0.000000   0.541669   0.000000   0.000000   1.228985
   13  S  1  Z    0.000000   0.000000   0.000000   1.256181   0.000000
   14  S  1 XX    0.000000   0.000000   0.000000  -0.111099   0.000000
   15  S  1 YY    0.000000   0.000000   0.000000   0.277270   0.000000
   16  S  1 ZZ    0.000000   0.000000   0.000000  -0.166171   0.000000
   17  S  1 XY    0.000000   0.000000   0.000000   0.000000   0.000000
   18  S  1 XZ   -0.120234   0.000000  -0.243442   0.000000   0.000000
   19  S  1 YZ    0.000000  -0.113256   0.000000   0.000000  -0.205270
   20  O  2  S   -0.008015   0.000000  -0.042921   0.063789   0.000000
   21  O  2  S    0.017918   0.000000   0.065211  -0.080695   0.000000
   22  O  2  S    0.063435   0.000000   0.469576  -0.802156   0.000000
   23  O  2  X    0.434727   0.000000  -0.021226  -0.211901   0.000000
   24  O  2  Y    0.000000  -0.363342   0.000000   0.000000   0.014371
   25  O  2  Z    0.216633   0.000000  -0.296911   0.068218   0.000000
   26  O  2  X    0.291592   0.000000  -0.029693  -0.414057   0.000000
   27  O  2  Y    0.000000  -0.346255   0.000000   0.000000  -0.098467
   28  O  2  Z    0.157048   0.000000  -0.316116   0.084274   0.000000
   29  O  2 XX    0.021304   0.000000  -0.001548  -0.006904   0.000000
   30  O  2 YY   -0.000760   0.000000   0.003335   0.013829   0.000000
   31  O  2 ZZ   -0.020545   0.000000  -0.001787  -0.006924   0.000000
   32  O  2 XY    0.000000  -0.005203   0.000000   0.000000  -0.031645
   33  O  2 XZ   -0.004297   0.000000   0.000471  -0.000543   0.000000
   34  O  2 YZ    0.000000   0.000295   0.000000   0.000000   0.017970
   35  O  3  S    0.008015   0.000000   0.042921   0.063789   0.000000
   36  O  3  S   -0.017918   0.000000  -0.065211  -0.080695   0.000000
   37  O  3  S   -0.063435   0.000000  -0.469576  -0.802156   0.000000
   38  O  3  X    0.434727   0.000000  -0.021226   0.211901   0.000000
   39  O  3  Y    0.000000  -0.363342   0.000000   0.000000   0.014371
   40  O  3  Z   -0.216633   0.000000   0.296911   0.068218   0.000000
   41  O  3  X    0.291592   0.000000  -0.029693   0.414057   0.000000
   42  O  3  Y    0.000000  -0.346255   0.000000   0.000000  -0.098467
   43  O  3  Z   -0.157048   0.000000   0.316116   0.084274   0.000000
   44  O  3 XX   -0.021304   0.000000   0.001548  -0.006904   0.000000
   45  O  3 YY    0.000760   0.000000  -0.003335   0.013829   0.000000
   46  O  3 ZZ    0.020545   0.000000   0.001787  -0.006924   0.000000
   47  O  3 XY    0.000000   0.005203   0.000000   0.000000   0.031645
   48  O  3 XZ   -0.004297   0.000000   0.000471   0.000543   0.000000
   49  O  3 YZ    0.000000   0.000295   0.000000   0.000000   0.017970

                     21         22         23         24         25
                    0.3755     0.4106     0.4356     0.5602     0.5620
                     A1         B1         A1         A2         B2  
    1  S  1  S   -0.053675   0.000000  -0.104748   0.000000   0.000000
    2  S  1  S   -0.181040   0.000000  -0.358198   0.000000   0.000000
    3  S  1  S   -0.814183   0.000000  -1.582704   0.000000   0.000000
    4  S  1  S    0.921182   0.000000   2.295307   0.000000   0.000000
    5  S  1  X    0.000000   0.272588   0.000000   0.000000   0.000000
    6  S  1  Y    0.000000   0.000000   0.000000   0.000000   0.055015
    7  S  1  Z   -0.263621   0.000000   0.115157   0.000000   0.000000
    8  S  1  X    0.000000  -0.970775   0.000000   0.000000   0.000000
    9  S  1  Y    0.000000   0.000000   0.000000   0.000000  -0.242321
   10  S  1  Z    0.988020   0.000000  -0.367555   0.000000   0.000000
   11  S  1  X    0.000000   1.439477   0.000000   0.000000   0.000000
   12  S  1  Y    0.000000   0.000000   0.000000   0.000000   0.315585
   13  S  1  Z   -0.931109   0.000000   0.817780   0.000000   0.000000
   14  S  1 XX   -0.284756   0.000000   0.266727   0.000000   0.000000
   15  S  1 YY    0.267959   0.000000  -0.189267   0.000000   0.000000
   16  S  1 ZZ    0.016797   0.000000  -0.077460   0.000000   0.000000
   17  S  1 XY    0.000000   0.000000   0.000000   0.949138   0.000000
   18  S  1 XZ    0.000000   0.407728   0.000000   0.000000   0.000000
   19  S  1 YZ    0.000000   0.000000   0.000000   0.000000   0.898031
   20  O  2  S    0.007788  -0.014418   0.016684   0.000000   0.000000
   21  O  2  S   -0.072878  -0.047101   0.012302   0.000000   0.000000
   22  O  2  S    0.101350   0.570986  -0.651295   0.000000   0.000000
   23  O  2  X   -0.104639  -0.217069   0.251987   0.000000   0.000000
   24  O  2  Y    0.000000   0.000000   0.000000   0.307843  -0.338291
   25  O  2  Z    0.019108   0.130962  -0.171136   0.000000   0.000000
   26  O  2  X   -0.029367   0.093616  -0.178992   0.000000   0.000000
   27  O  2  Y    0.000000   0.000000   0.000000   0.004427   0.040881
   28  O  2  Z    0.055842  -0.147245   0.132485   0.000000   0.000000
   29  O  2 XX    0.025789  -0.001476  -0.047321   0.000000   0.000000
   30  O  2 YY    0.004077  -0.029695   0.036103   0.000000   0.000000
   31  O  2 ZZ   -0.029866   0.031171   0.011218   0.000000   0.000000
   32  O  2 XY    0.000000   0.000000   0.000000  -0.017746   0.044325
   33  O  2 XZ    0.000032  -0.048105   0.053380   0.000000   0.000000
   34  O  2 YZ    0.000000   0.000000   0.000000   0.050979   0.005190
   35  O  3  S    0.007788   0.014418   0.016684   0.000000   0.000000
   36  O  3  S   -0.072878   0.047101   0.012302   0.000000   0.000000
   37  O  3  S    0.101350  -0.570986  -0.651295   0.000000   0.000000
   38  O  3  X    0.104639  -0.217069  -0.251987   0.000000   0.000000
   39  O  3  Y    0.000000   0.000000   0.000000  -0.307843  -0.338291
   40  O  3  Z    0.019108  -0.130962  -0.171136   0.000000   0.000000
   41  O  3  X    0.029367   0.093616   0.178992   0.000000   0.000000
   42  O  3  Y    0.000000   0.000000   0.000000  -0.004427   0.040881
   43  O  3  Z    0.055842   0.147245   0.132485   0.000000   0.000000
   44  O  3 XX    0.025789   0.001476  -0.047321   0.000000   0.000000
   45  O  3 YY    0.004077   0.029695   0.036103   0.000000   0.000000
   46  O  3 ZZ   -0.029866  -0.031171   0.011218   0.000000   0.000000
   47  O  3 XY    0.000000   0.000000   0.000000  -0.017746  -0.044325
   48  O  3 XZ   -0.000032  -0.048105  -0.053380   0.000000   0.000000
   49  O  3 YZ    0.000000   0.000000   0.000000  -0.050979   0.005190

                     26         27         28         29         30
                    0.6125     0.6592     0.6643     0.7579     0.8011
                     A1         A1         B1         A1         A2  
    1  S  1  S    0.013980   0.028187   0.000000   0.009905   0.000000
    2  S  1  S    0.013128   0.085693   0.000000   0.051512   0.000000
    3  S  1  S    0.179892   0.427068   0.000000   0.172960   0.000000
    4  S  1  S    1.027658   0.767312   0.000000  -0.213981   0.000000
    5  S  1  X    0.000000   0.000000  -0.168810   0.000000   0.000000
    6  S  1  Y    0.000000   0.000000   0.000000   0.000000   0.000000
    7  S  1  Z   -0.058437  -0.143053   0.000000  -0.037137   0.000000
    8  S  1  X    0.000000   0.000000   0.917601   0.000000   0.000000
    9  S  1  Y    0.000000   0.000000   0.000000   0.000000   0.000000
   10  S  1  Z    0.328172   0.712690   0.000000   0.134478   0.000000
   11  S  1  X    0.000000   0.000000   0.130523   0.000000   0.000000
   12  S  1  Y    0.000000   0.000000   0.000000   0.000000   0.000000
   13  S  1  Z    0.457785  -0.088009   0.000000  -0.624273   0.000000
   14  S  1 XX   -0.202837   0.699769   0.000000   0.413792   0.000000
   15  S  1 YY   -0.585253  -0.323062   0.000000   0.067394   0.000000
   16  S  1 ZZ    0.788090  -0.376707   0.000000  -0.481186   0.000000
   17  S  1 XY    0.000000   0.000000   0.000000   0.000000   0.370970
   18  S  1 XZ    0.000000   0.000000   0.510962   0.000000   0.000000
   19  S  1 YZ    0.000000   0.000000   0.000000   0.000000   0.000000
   20  O  2  S    0.046120   0.042730  -0.062750   0.003321   0.000000
   21  O  2  S   -0.111420  -0.088844   0.141589  -0.030602   0.000000
   22  O  2  S   -0.522036  -0.408319   0.532518   0.154280   0.000000
   23  O  2  X   -0.049120   0.289193  -0.176547  -0.363093   0.000000
   24  O  2  Y    0.000000   0.000000   0.000000   0.000000  -0.581568
   25  O  2  Z   -0.322212   0.151983   0.206978  -0.387222   0.000000
   26  O  2  X   -0.546579  -0.634735   0.890764   0.480328   0.000000
   27  O  2  Y    0.000000   0.000000   0.000000   0.000000   0.843863
   28  O  2  Z    0.447271   0.479321  -0.750463   0.667089   0.000000
   29  O  2 XX    0.044000  -0.022771  -0.000349  -0.024046   0.000000
   30  O  2 YY   -0.013399  -0.015868   0.003176  -0.018231   0.000000
   31  O  2 ZZ   -0.030602   0.038640  -0.002827   0.042277   0.000000
   32  O  2 XY    0.000000   0.000000   0.000000   0.000000  -0.044272
   33  O  2 XZ    0.020676  -0.025370   0.004502  -0.007290   0.000000
   34  O  2 YZ    0.000000   0.000000   0.000000   0.000000   0.030233
   35  O  3  S    0.046120   0.042730   0.062750   0.003321   0.000000
   36  O  3  S   -0.111420  -0.088844  -0.141589  -0.030602   0.000000
   37  O  3  S   -0.522036  -0.408319  -0.532518   0.154280   0.000000
   38  O  3  X    0.049120  -0.289193  -0.176547   0.363093   0.000000
   39  O  3  Y    0.000000   0.000000   0.000000   0.000000   0.581568
   40  O  3  Z   -0.322212   0.151983  -0.206978  -0.387222   0.000000
   41  O  3  X    0.546579   0.634735   0.890764  -0.480328   0.000000
   42  O  3  Y    0.000000   0.000000   0.000000   0.000000  -0.843863
   43  O  3  Z    0.447271   0.479321   0.750463   0.667089   0.000000
   44  O  3 XX    0.044000  -0.022771   0.000349  -0.024046   0.000000
   45  O  3 YY   -0.013399  -0.015868  -0.003176  -0.018231   0.000000
   46  O  3 ZZ   -0.030602   0.038640   0.002827   0.042277   0.000000
   47  O  3 XY    0.000000   0.000000   0.000000   0.000000  -0.044272
   48  O  3 XZ   -0.020676   0.025370   0.004502   0.007290   0.000000
   49  O  3 YZ    0.000000   0.000000   0.000000   0.000000  -0.030233

                     31         32         33         34         35
                    0.8238     0.9242     0.9471     1.2179     1.6030
                     B2         B1         A1         B1         B1  
    1  S  1  S    0.000000   0.000000   0.011646   0.000000   0.000000
    2  S  1  S    0.000000   0.000000   0.245595   0.000000   0.000000
    3  S  1  S    0.000000   0.000000   0.444320   0.000000   0.000000
    4  S  1  S    0.000000   0.000000  -0.550402   0.000000   0.000000
    5  S  1  X    0.000000  -0.038685   0.000000  -0.122833  -0.012908
    6  S  1  Y   -0.027865   0.000000   0.000000   0.000000   0.000000
    7  S  1  Z    0.000000   0.000000   0.091309   0.000000   0.000000
    8  S  1  X    0.000000   0.148079   0.000000   0.382479   0.278672
    9  S  1  Y    0.091088   0.000000   0.000000   0.000000   0.000000
   10  S  1  Z    0.000000   0.000000  -0.192138   0.000000   0.000000
   11  S  1  X    0.000000  -0.718228   0.000000   0.611339   0.797517
   12  S  1  Y   -0.772521   0.000000   0.000000   0.000000   0.000000
   13  S  1  Z    0.000000   0.000000  -0.261875   0.000000   0.000000
   14  S  1 XX    0.000000   0.000000  -0.544564   0.000000   0.000000
   15  S  1 YY    0.000000   0.000000   0.770613   0.000000   0.000000
   16  S  1 ZZ    0.000000   0.000000  -0.226050   0.000000   0.000000
   17  S  1 XY    0.000000   0.000000   0.000000   0.000000   0.000000
   18  S  1 XZ    0.000000   0.073318   0.000000   1.111512   0.074127
   19  S  1 YZ   -0.443547   0.000000   0.000000   0.000000   0.000000
   20  O  2  S    0.000000  -0.003610  -0.031122  -0.034922   0.010680
   21  O  2  S    0.000000   0.044947   0.260702   0.024500  -1.207840
   22  O  2  S    0.000000  -0.178102   0.163554   0.695063   1.762919
   23  O  2  X    0.000000  -0.367389   0.445523   0.510255  -0.051461
   24  O  2  Y   -0.560555   0.000000   0.000000   0.000000   0.000000
   25  O  2  Z    0.000000  -0.507024  -0.396513  -0.373070   0.053054
   26  O  2  X    0.000000   0.708473  -0.267442  -0.162953   0.378530
   27  O  2  Y    0.947261   0.000000   0.000000   0.000000   0.000000
   28  O  2  Z    0.000000   0.761202   0.308487  -0.041789  -0.393320
   29  O  2 XX    0.000000  -0.064369  -0.018977   0.021213  -0.161842
   30  O  2 YY    0.000000   0.028237   0.025869  -0.026631   0.180631
   31  O  2 ZZ    0.000000   0.036132  -0.006892   0.005418  -0.018789
   32  O  2 XY   -0.035187   0.000000   0.000000   0.000000   0.000000
   33  O  2 XZ    0.000000  -0.017548  -0.056741   0.061412   0.090134
   34  O  2 YZ    0.031225   0.000000   0.000000   0.000000   0.000000
   35  O  3  S    0.000000   0.003610  -0.031122   0.034922  -0.010680
   36  O  3  S    0.000000  -0.044947   0.260702  -0.024500   1.207840
   37  O  3  S    0.000000   0.178102   0.163554  -0.695063  -1.762919
   38  O  3  X    0.000000  -0.367389  -0.445523   0.510255  -0.051461
   39  O  3  Y   -0.560555   0.000000   0.000000   0.000000   0.000000
   40  O  3  Z    0.000000   0.507024  -0.396513   0.373070  -0.053054
   41  O  3  X    0.000000   0.708473   0.267442  -0.162953   0.378530
   42  O  3  Y    0.947261   0.000000   0.000000   0.000000   0.000000
   43  O  3  Z    0.000000  -0.761202   0.308487   0.041789   0.393320
   44  O  3 XX    0.000000   0.064369  -0.018977  -0.021213   0.161842
   45  O  3 YY    0.000000  -0.028237   0.025869   0.026631  -0.180631
   46  O  3 ZZ    0.000000  -0.036132  -0.006892  -0.005418   0.018789
   47  O  3 XY    0.035187   0.000000   0.000000   0.000000   0.000000
   48  O  3 XZ    0.000000  -0.017548   0.056741   0.061412   0.090134
   49  O  3 YZ    0.031225   0.000000   0.000000   0.000000   0.000000

                     36         37         38         39         40
                    1.6817     2.0686     2.0847     2.0884     2.0986
                     A1         B2         A2         B1         A1  
    1  S  1  S   -0.021590   0.000000   0.000000   0.000000   0.005358
    2  S  1  S   -0.226486   0.000000   0.000000   0.000000   0.029827
    3  S  1  S   -0.500372   0.000000   0.000000   0.000000   0.094430
    4  S  1  S    2.668520   0.000000   0.000000   0.000000  -0.457254
    5  S  1  X    0.000000   0.000000   0.000000  -0.020600   0.000000
    6  S  1  Y    0.000000  -0.015026   0.000000   0.000000   0.000000
    7  S  1  Z   -0.053469   0.000000   0.000000   0.000000  -0.006284
    8  S  1  X    0.000000   0.000000   0.000000   0.089535   0.000000
    9  S  1  Y    0.000000   0.055932   0.000000   0.000000   0.000000
   10  S  1  Z    0.388351   0.000000   0.000000   0.000000  -0.012388
   11  S  1  X    0.000000   0.000000   0.000000   0.049267   0.000000
   12  S  1  Y    0.000000   0.038457   0.000000   0.000000   0.000000
   13  S  1  Z    1.162429   0.000000   0.000000   0.000000  -0.226345
   14  S  1 XX    0.202803   0.000000   0.000000   0.000000   0.026860
   15  S  1 YY   -0.404614   0.000000   0.000000   0.000000  -0.110474
   16  S  1 ZZ    0.201811   0.000000   0.000000   0.000000   0.083614
   17  S  1 XY    0.000000   0.000000   0.019625   0.000000   0.000000
   18  S  1 XZ    0.000000   0.000000   0.000000  -0.160382   0.000000
   19  S  1 YZ    0.000000  -0.037847   0.000000   0.000000   0.000000
   20  O  2  S    0.009479   0.000000   0.000000   0.001434   0.000849
   21  O  2  S    1.223685   0.000000   0.000000  -0.099281  -0.247102
   22  O  2  S   -2.419225   0.000000   0.000000   0.099400   0.416932
   23  O  2  X   -0.097238   0.000000   0.000000  -0.013976  -0.048090
   24  O  2  Y    0.000000   0.034332  -0.037265   0.000000   0.000000
   25  O  2  Z    0.056248   0.000000   0.000000   0.047350   0.007891
   26  O  2  X   -0.523343   0.000000   0.000000   0.000365   0.134892
   27  O  2  Y    0.000000  -0.055277   0.058872   0.000000   0.000000
   28  O  2  Z    0.316577   0.000000   0.000000  -0.061023  -0.046057
   29  O  2 XX    0.001132   0.000000   0.000000  -0.145720  -0.323549
   30  O  2 YY    0.009414   0.000000   0.000000  -0.489984   0.630072
   31  O  2 ZZ   -0.010546   0.000000   0.000000   0.635704  -0.306523
   32  O  2 XY    0.000000   0.336586   0.578528   0.000000   0.000000
   33  O  2 XZ   -0.202417   0.000000   0.000000   0.246268  -0.306344
   34  O  2 YZ    0.000000   0.622310   0.408894   0.000000   0.000000
   35  O  3  S    0.009479   0.000000   0.000000  -0.001434   0.000849
   36  O  3  S    1.223685   0.000000   0.000000   0.099281  -0.247102
   37  O  3  S   -2.419225   0.000000   0.000000  -0.099400   0.416932
   38  O  3  X    0.097238   0.000000   0.000000  -0.013976   0.048090
   39  O  3  Y    0.000000   0.034332   0.037265   0.000000   0.000000
   40  O  3  Z    0.056248   0.000000   0.000000  -0.047350   0.007891
   41  O  3  X    0.523343   0.000000   0.000000   0.000365  -0.134892
   42  O  3  Y    0.000000  -0.055277  -0.058872   0.000000   0.000000
   43  O  3  Z    0.316577   0.000000   0.000000   0.061023  -0.046057
   44  O  3 XX    0.001132   0.000000   0.000000   0.145720  -0.323549
   45  O  3 YY    0.009414   0.000000   0.000000   0.489984   0.630072
   46  O  3 ZZ   -0.010546   0.000000   0.000000  -0.635704  -0.306523
   47  O  3 XY    0.000000  -0.336586   0.578528   0.000000   0.000000
   48  O  3 XZ    0.202417   0.000000   0.000000   0.246268   0.306344
   49  O  3 YZ    0.000000   0.622310  -0.408894   0.000000   0.000000

                     41         42         43         44         45
                    2.2359     2.2893     2.3437     2.5054     2.8551
                     B1         A2         B2         A1         A1  
    1  S  1  S    0.000000   0.000000   0.000000  -0.004574  -0.052488
    2  S  1  S    0.000000   0.000000   0.000000  -0.030512  -0.113034
    3  S  1  S    0.000000   0.000000   0.000000  -0.093837  -0.814066
    4  S  1  S    0.000000   0.000000   0.000000  -0.000597  -1.262007
    5  S  1  X    0.042214   0.000000   0.000000   0.000000   0.000000
    6  S  1  Y    0.000000   0.000000   0.076029   0.000000   0.000000
    7  S  1  Z    0.000000   0.000000   0.000000  -0.054880   0.155507
    8  S  1  X   -0.089958   0.000000   0.000000   0.000000   0.000000
    9  S  1  Y    0.000000   0.000000  -0.278705   0.000000   0.000000
   10  S  1  Z    0.000000   0.000000   0.000000   0.164531  -1.009723
   11  S  1  X   -0.071565   0.000000   0.000000   0.000000   0.000000
   12  S  1  Y    0.000000   0.000000  -0.170671   0.000000   0.000000
   13  S  1  Z    0.000000   0.000000   0.000000   0.159486  -0.344906
   14  S  1 XX    0.000000   0.000000   0.000000  -0.563455  -0.310690
   15  S  1 YY    0.000000   0.000000   0.000000  -0.002183   0.441254
   16  S  1 ZZ    0.000000   0.000000   0.000000   0.565638  -0.130564
   17  S  1 XY    0.000000  -0.488733   0.000000   0.000000   0.000000
   18  S  1 XZ   -0.015068   0.000000   0.000000   0.000000   0.000000
   19  S  1 YZ    0.000000   0.000000  -0.436163   0.000000   0.000000
   20  O  2  S    0.003396   0.000000   0.000000   0.001732  -0.035673
   21  O  2  S   -0.234111   0.000000   0.000000  -0.060158  -0.585547
   22  O  2  S    0.247359   0.000000   0.000000   0.043115   1.463147
   23  O  2  X   -0.148816   0.000000   0.000000  -0.032256   0.065239
   24  O  2  Y    0.000000   0.044352  -0.042250   0.000000   0.000000
   25  O  2  Z   -0.041039   0.000000   0.000000   0.011549  -0.042039
   26  O  2  X    0.293964   0.000000   0.000000  -0.065602   0.613942
   27  O  2  Y    0.000000  -0.176064   0.212747   0.000000   0.000000
   28  O  2  Z    0.098119   0.000000   0.000000  -0.204807  -0.506713
   29  O  2 XX    0.641380   0.000000   0.000000  -0.631584   0.345298
   30  O  2 YY   -0.322684   0.000000   0.000000  -0.075136  -0.402694
   31  O  2 ZZ   -0.318696   0.000000   0.000000   0.706720   0.057396
   32  O  2 XY    0.000000  -0.440406   0.662944   0.000000   0.000000
   33  O  2 XZ    0.313513   0.000000   0.000000  -0.134454  -0.724589
   34  O  2 YZ    0.000000   0.607298  -0.367659   0.000000   0.000000
   35  O  3  S   -0.003396   0.000000   0.000000   0.001732  -0.035673
   36  O  3  S    0.234111   0.000000   0.000000  -0.060158  -0.585547
   37  O  3  S   -0.247359   0.000000   0.000000   0.043115   1.463147
   38  O  3  X   -0.148816   0.000000   0.000000   0.032256  -0.065239
   39  O  3  Y    0.000000  -0.044352  -0.042250   0.000000   0.000000
   40  O  3  Z    0.041039   0.000000   0.000000   0.011549  -0.042039
   41  O  3  X    0.293964   0.000000   0.000000   0.065602  -0.613942
   42  O  3  Y    0.000000   0.176064   0.212747   0.000000   0.000000
   43  O  3  Z   -0.098119   0.000000   0.000000  -0.204807  -0.506713
   44  O  3 XX   -0.641380   0.000000   0.000000  -0.631584   0.345298
   45  O  3 YY    0.322684   0.000000   0.000000  -0.075136  -0.402694
   46  O  3 ZZ    0.318696   0.000000   0.000000   0.706720   0.057396
   47  O  3 XY    0.000000  -0.440406  -0.662944   0.000000   0.000000
   48  O  3 XZ    0.313513   0.000000   0.000000   0.134454   0.724589
   49  O  3 YZ    0.000000  -0.607298  -0.367659   0.000000   0.000000

                     46
                    2.9076
                     B1  
    1  S  1  S    0.000000
    2  S  1  S    0.000000
    3  S  1  S    0.000000
    4  S  1  S    0.000000
    5  S  1  X   -0.210402
    6  S  1  Y    0.000000
    7  S  1  Z    0.000000
    8  S  1  X    1.336346
    9  S  1  Y    0.000000
   10  S  1  Z    0.000000
   11  S  1  X    0.414161
   12  S  1  Y    0.000000
   13  S  1  Z    0.000000
   14  S  1 XX    0.000000
   15  S  1 YY    0.000000
   16  S  1 ZZ    0.000000
   17  S  1 XY    0.000000
   18  S  1 XZ    0.860266
   19  S  1 YZ    0.000000
   20  O  2  S   -0.041999
   21  O  2  S   -0.587634
   22  O  2  S    1.547526
   23  O  2  X    0.111308
   24  O  2  Y    0.000000
   25  O  2  Z   -0.110702
   26  O  2  X    0.685660
   27  O  2  Y    0.000000
   28  O  2  Z   -0.559182
   29  O  2 XX    0.330677
   30  O  2 YY   -0.453463
   31  O  2 ZZ    0.122786
   32  O  2 XY    0.000000
   33  O  2 XZ   -0.756761
   34  O  2 YZ    0.000000
   35  O  3  S    0.041999
   36  O  3  S    0.587634
   37  O  3  S   -1.547526
   38  O  3  X    0.111308
   39  O  3  Y    0.000000
   40  O  3  Z    0.110702
   41  O  3  X    0.685660
   42  O  3  Y    0.000000
   43  O  3  Z    0.559182
   44  O  3 XX   -0.330677
   45  O  3 YY    0.453463
   46  O  3 ZZ   -0.122786
   47  O  3 XY    0.000000
   48  O  3 XZ   -0.756761
   49  O  3 YZ    0.000000
 ...... END OF RHF CALCULATION ......
 STEP CPU TIME =     4.52 TOTAL CPU TIME =        4.7 (    0.1 MIN)
 TOTAL WALL CLOCK TIME=        4.7 SECONDS, CPU UTILIZATION IS  99.79%

     ---------------------------------------------------------------------
     PROPERTIES FOR THE PBE      DFT FUNCTIONAL (RHF  TYPE) DENSITY MATRIX
     ---------------------------------------------------------------------

          -----------------
          ENERGY COMPONENTS
          -----------------

         WAVEFUNCTION NORMALIZATION =       1.0000000000

                ONE ELECTRON ENERGY =    -979.3064715757
                TWO ELECTRON ENERGY =     318.5352144785
           NUCLEAR REPULSION ENERGY =     112.5533675983
                                      ------------------
                       TOTAL ENERGY =    -548.2178894989

 ELECTRON-ELECTRON POTENTIAL ENERGY =     318.5352144785
  NUCLEUS-ELECTRON POTENTIAL ENERGY =   -1527.5814907531
   NUCLEUS-NUCLEUS POTENTIAL ENERGY =     112.5533675983
                                      ------------------
             TOTAL POTENTIAL ENERGY =   -1096.4929086763
               TOTAL KINETIC ENERGY =     548.2750191775
                 VIRIAL RATIO (V/T) =       1.9998958011

          ---------------------------------------
          MULLIKEN AND LOWDIN POPULATION ANALYSES
          ---------------------------------------

     ATOMIC MULLIKEN POPULATION IN EACH MOLECULAR ORBITAL

                      1          2          3          4          5

                  2.000000   2.000000   2.000000   2.000000   2.000000

    1             2.000029   0.000744   0.002286   2.001435   1.999800
    2            -0.000015   0.999628   0.998857  -0.000717   0.000100
    3            -0.000015   0.999628   0.998857  -0.000717   0.000100

                      6          7          8          9         10

                  2.000000   2.000000   2.000000   2.000000   2.000000

    1             2.000001   1.999742   0.708271   0.441642   1.149764
    2             0.000000   0.000129   0.645864   0.779179   0.425118
    3             0.000000   0.000129   0.645864   0.779179   0.425118

                     11         12         13         14         15

                  2.000000   2.000000   2.000000   2.000000   2.000000

    1             1.027061   0.623051   0.388401   0.111292   0.586802
    2             0.486469   0.688474   0.805800   0.944354   0.706599
    3             0.486469   0.688474   0.805800   0.944354   0.706599

                     16

                  2.000000

    1             0.193946
    2             0.903027
    3             0.903027

               ----- POPULATIONS IN EACH AO -----
                             MULLIKEN      LOWDIN
              1  S  1  S      2.00024     1.99578
              2  S  1  S      2.01019     1.95690
              3  S  1  S      0.95115     0.56911
              4  S  1  S      0.84418     0.54299
              5  S  1  X      1.99648     1.95536
              6  S  1  Y      1.99596     1.95464
              7  S  1  Z      1.99720     1.96290
              8  S  1  X      0.69450     0.61644
              9  S  1  Y      0.66478     0.61405
             10  S  1  Z      0.85881     0.81878
             11  S  1  X      0.16728     0.27991
             12  S  1  Y      0.33862     0.39497
             13  S  1  Z      0.21230     0.37860
             14  S  1 XX      0.09870     0.29265
             15  S  1 YY      0.09861     0.23450
             16  S  1 ZZ      0.11129     0.28662
             17  S  1 XY      0.16627     0.13552
             18  S  1 XZ      0.02771     0.20111
             19  S  1 YZ      0.00000     0.02680
             20  O  2  S      1.99790     1.98050
             21  O  2  S      0.82344     0.63534
             22  O  2  S      1.01558     0.54258
             23  O  2  X      1.04253     1.00589
             24  O  2  Y      0.86852     0.83028
             25  O  2  Z      0.99418     0.96443
             26  O  2  X      0.51529     0.58528
             27  O  2  Y      0.55379     0.59515
             28  O  2  Z      0.54695     0.62868
             29  O  2 XX      0.00503     0.20081
             30  O  2 YY      0.00361     0.19853
             31  O  2 ZZ      0.00473     0.19823
             32  O  2 XY      0.00755     0.00675
             33  O  2 XZ      0.00379     0.01391
             34  O  2 YZ      0.00000     0.00483
             35  O  3  S      1.99790     1.98050
             36  O  3  S      0.82344     0.63534
             37  O  3  S      1.01558     0.54258
             38  O  3  X      1.04253     1.00589
             39  O  3  Y      0.86852     0.83028
             40  O  3  Z      0.99418     0.96443
             41  O  3  X      0.51529     0.58528
             42  O  3  Y      0.55379     0.59515
             43  O  3  Z      0.54695     0.62868
             44  O  3 XX      0.00503     0.20081
             45  O  3 YY      0.00361     0.19853
             46  O  3 ZZ      0.00473     0.19823
             47  O  3 XY      0.00755     0.00675
             48  O  3 XZ      0.00379     0.01391
             49  O  3 YZ      0.00000     0.00483

          ----- MULLIKEN ATOMIC OVERLAP POPULATIONS -----
          (OFF-DIAGONAL ELEMENTS NEED TO BE MULTIPLIED BY 2)

             1           2           3

    1   14.4194701
    2    0.4073987   8.1036282
    3    0.4073987  -0.1281607   8.1036282

          TOTAL MULLIKEN AND LOWDIN ATOMIC POPULATIONS
       ATOM         MULL.POP.    CHARGE          LOW.POP.     CHARGE
    1 S            15.234268    0.765732        15.217632    0.782368
    2 O             8.382866   -0.382866         8.391184   -0.391184
    3 O             8.382866   -0.382866         8.391184   -0.391184

          MULLIKEN SPHERICAL HARMONIC POPULATIONS
       ATOM           S       P       D      F      G      H      I    TOTAL
    1 S             5.81    8.93    0.50   0.00   0.00   0.00   0.00   15.23
    2 O             3.84    4.52    0.02   0.00   0.00   0.00   0.00    8.38
    3 O             3.84    4.52    0.02   0.00   0.00   0.00   0.00    8.38

          -------------------------------
          BOND ORDER AND VALENCE ANALYSIS     BOND ORDER THRESHOLD=0.050
          -------------------------------

                   BOND                       BOND                       BOND
  ATOM PAIR DIST  ORDER      ATOM PAIR DIST  ORDER      ATOM PAIR DIST  ORDER
    1   2  1.400  1.878        1   3  1.400  1.878        2   3  2.145  0.209

                       TOTAL       BONDED        FREE
      ATOM            VALENCE     VALENCE     VALENCE
    1 S                 3.757       3.757       0.000
    2 O                 2.088       2.088       0.000
    3 O                 2.088       2.088       0.000

          ---------------------
          ELECTROSTATIC MOMENTS
          ---------------------

 POINT   1           X           Y           Z (BOHR)    CHARGE
                 0.000000    0.000000    0.000000        0.00 (A.U.)
         DX          DY          DZ         /D/  (DEBYE)
     0.000000    0.000000   -2.519671    2.519671
 ...... END OF PROPERTY EVALUATION ......
 STEP CPU TIME =     0.01 TOTAL CPU TIME =        4.7 (    0.1 MIN)
 TOTAL WALL CLOCK TIME=        4.7 SECONDS, CPU UTILIZATION IS 100.00%
               580000  WORDS OF DYNAMIC MEMORY USED
 EXECUTION OF GAMESS TERMINATED NORMALLY Thu Feb 26 00:15:19 2015
 DDI: 263624 bytes (0.3 MB / 0 MWords) used by master data server.

 ----------------------------------------
 CPU timing information for all processes
 ========================================
 0: 4.692 + 0.29 = 4.722
 ----------------------------------------
 ddikick.x: exited gracefully.
----- accounting info -----
Files used on the master node dftfe.crc.nd.edu were:
-rw-r--r-- 1 pmehta1 campus   37475 Feb 26 00:15 /tmp/gamess.dat
-rw-r--r-- 1 pmehta1 campus     142 Feb 26 00:15 /tmp/gamess.F05
-rw-r--r-- 1 pmehta1 campus 2340312 Feb 26 00:15 /tmp/gamess.F08
-rw-r--r-- 1 pmehta1 campus 1220440 Feb 26 00:15 /tmp/gamess.F10
Thu Feb 26 00:15:23 EST 2015
0.246u 0.180s 0:08.15 5.1%	0+0k 0+104io 0pf+0w
