----- GAMESS execution script 'rungms' -----
This job is running on host dftfe.crc.nd.edu
under operating system Linux at Thu Feb 26 00:15:06 EST 2015
Available scratch disk space (Kbyte units) at beginning of the job is
Filesystem     1K-blocks     Used Available Use% Mounted on
/dev/sda2      147771864 22812092 117453340  17% /
GAMESS temporary binary files will be written to /tmp
GAMESS supplementary output files will be written to /tmp
Copying input file gamess.inp to your run's scratch directory...

 Distributed Data Interface kickoff program.
 Initiating 1 compute processes on 1 nodes to run the following command:
 /opt/crc/gamess/2012R1/gamess/gamess.00.x gamess 

          ******************************************************
          *         GAMESS VERSION =  1 MAY 2012 (R1)          *
          *             FROM IOWA STATE UNIVERSITY             *
          * M.W.SCHMIDT, K.K.BALDRIDGE, J.A.BOATZ, S.T.ELBERT, *
          *   M.S.GORDON, J.H.JENSEN, S.KOSEKI, N.MATSUNAGA,   *
          *          K.A.NGUYEN, S.J.SU, T.L.WINDUS,           *
          *       TOGETHER WITH M.DUPUIS, J.A.MONTGOMERY       *
          *         J.COMPUT.CHEM.  14, 1347-1363(1993)        *
          **************** 64 BIT LINUX VERSION ****************

  SINCE 1993, STUDENTS AND POSTDOCS WORKING AT IOWA STATE UNIVERSITY
  AND ALSO IN THEIR VARIOUS JOBS AFTER LEAVING ISU HAVE MADE IMPORTANT
  CONTRIBUTIONS TO THE CODE:
     IVANA ADAMOVIC, CHRISTINE AIKENS, YURI ALEXEEV, POOJA ARORA,
     ANDREY ASADCHEV, ROB BELL, PRADIPTA BANDYOPADHYAY, JONATHAN BENTZ,
     BRETT BODE, GALINA CHABAN, WEI CHEN, CHEOL HO CHOI, PAUL DAY,
     ALBERT DEFUSCO, TIM DUDLEY, DMITRI FEDOROV, GRAHAM FLETCHER,
     MARK FREITAG, KURT GLAESEMANN, DAN KEMP, GRANT MERRILL,
     NORIYUKI MINEZAWA, JONATHAN MULLIN, TAKESHI NAGATA,
     SEAN NEDD, HEATHER NETZLOFF, BOSILJKA NJEGIC, RYAN OLSON, MIKE PAK,
     JIM SHOEMAKER, LYUDMILA SLIPCHENKO, SAROM SOK, JIE SONG,
     TETSUYA TAKETSUGU, SIMON WEBB, SOOHAENG YOO, FEDERICO ZAHARIEV

  ADDITIONAL CODE HAS BEEN PROVIDED BY COLLABORATORS IN OTHER GROUPS:
     IOWA STATE UNIVERSITY:
          JOE IVANIC, LAIMUTIS BYTAUTAS, KLAUS RUEDENBERG
     UNIVERSITY OF TOKYO: KIMIHIKO HIRAO, TAKAHITO NAKAJIMA,
          TAKAO TSUNEDA, MUNEAKI KAMIYA, SUSUMU YANAGISAWA,
          KIYOSHI YAGI, MAHITO CHIBA, SEIKEN TOKURA, NAOAKI KAWAKAMI
     UNIVERSITY OF AARHUS: FRANK JENSEN
     UNIVERSITY OF IOWA: VISVALDAS KAIRYS, HUI LI
     NATIONAL INST. OF STANDARDS AND TECHNOLOGY: WALT STEVENS, DAVID GARMER
     UNIVERSITY OF PISA: BENEDETTA MENNUCCI, JACOPO TOMASI
     UNIVERSITY OF MEMPHIS: HENRY KURTZ, PRAKASHAN KORAMBATH
     UNIVERSITY OF ALBERTA: TOBY ZENG, MARIUSZ KLOBUKOWSKI
     UNIVERSITY OF NEW ENGLAND: MARK SPACKMAN
     MIE UNIVERSITY: HIROAKI UMEDA
     MICHIGAN STATE UNIVERSITY:
          KAROL KOWALSKI, MARTA WLOCH, JEFFREY GOUR, JESSE LUTZ, PIOTR PIECUCH
     UNIVERSITY OF SILESIA: MONIKA MUSIAL, STANISLAW KUCHARSKI
     FACULTES UNIVERSITAIRES NOTRE-DAME DE LA PAIX:
          OLIVIER QUINET, BENOIT CHAMPAGNE
     UNIVERSITY OF CALIFORNIA - SANTA BARBARA: BERNARD KIRTMAN
     INSTITUTE FOR MOLECULAR SCIENCE:
          KAZUYA ISHIMURA, MICHIO KATOUDA, AND SHIGERU NAGASE
     UNIVERSITY OF NOTRE DAME: DAN CHIPMAN
     KYUSHU UNIVERSITY:
          HARUYUKI NAKANO,
          FENG LONG GU, JACEK KORCHOWIEC, MARCIN MAKOWSKI, AND YURIKO AOKI,
          HIROTOSHI MORI AND EISAKU MIYOSHI
     PENNSYLVANIA STATE UNIVERSITY:
          TZVETELIN IORDANOV, CHET SWALINA, JONATHAN SKONE,
          SHARON HAMMES-SCHIFFER
     WASEDA UNIVERSITY:
          MASATO KOBAYASHI, TOMOKO AKAMA, TSUGUKI TOUMA,
          TAKESHI YOSHIKAWA, YASUHIRO IKABATA, HIROMI NAKAI
     UNIVERSITY OF NEBRASKA:
          PEIFENG SU, DEJUN SI, NANDUN THELLAMUREGE, YALI WANG, HUI LI
     UNIVERSITY OF ZURICH:
          ROBERTO PEVERATI, KIM BALDRIDGE
     N. COPERNICUS UNIVERSITY AND JACKSON STATE UNIVERSITY:
          MARIA BARYSZ

 EXECUTION OF GAMESS BEGUN Thu Feb 26 00:15:07 2015

            ECHO OF THE FIRST FEW INPUT CARDS -
 INPUT CARD> $BASIS GBASIS=PC1 $END                                                         
 INPUT CARD> $CONTRL COORD=ZMT ISPHER=1 RUNTYP=ENERGY DFTTYP=PBE $END                       
 INPUT CARD>                                                                                
 INPUT CARD> $DATA                                                                          
 INPUT CARD>Title                                                                           
 INPUT CARD>Cnv 2                                                                           
 INPUT CARD>                                                                                
 INPUT CARD>S                                                                               
 INPUT CARD>O 1 1.40                                                                        
 INPUT CARD>O 1 1.40 2 90.0                                                                 
 INPUT CARD> $END                                                                           
    1000000 WORDS OF MEMORY AVAILABLE

     BASIS OPTIONS
     -------------
     GBASIS=PC1          IGAUSS=       0      POLAR=NONE    
     NDFUNC=       0     NFFUNC=       0     DIFFSP=       F
     NPFUNC=       0      DIFFS=       F     BASNAM=        


     RUN TITLE
     ---------
 Title                                                                           

 THE POINT GROUP OF THE MOLECULE IS CNV     
 THE ORDER OF THE PRINCIPAL AXIS IS     2

 YOUR FULLY SUBSTITUTED Z-MATRIX IS
 S   
 O      1   1.4000000
 O      1   1.4000000  2   90.0000

 THE MOMENTS OF INERTIA ARE (AMU-ANGSTROM**2)
 IXX=    15.671   IYY=    31.350   IZZ=    47.021

 ATOM      ATOMIC                      COORDINATES (BOHR)
           CHARGE         X                   Y                   Z
 S          16.0     0.0000000000        0.0000000000       -0.9356262150
 O           8.0    -1.8707332847        0.0000000000        0.9351070697
 O           8.0     1.8707332847        0.0000000000        0.9351070697

          INTERNUCLEAR DISTANCES (ANGS.)
          ------------------------------

                1 S          2 O          3 O     

   1 S       0.0000000    1.4000000 *  1.4000000 *
   2 O       1.4000000 *  0.0000000    1.9798990 *
   3 O       1.4000000 *  1.9798990 *  0.0000000  

  * ... LESS THAN  3.000


     ATOMIC BASIS SET
     ----------------
 THE CONTRACTED PRIMITIVE FUNCTIONS HAVE BEEN UNNORMALIZED
 THE CONTRACTED BASIS FUNCTIONS ARE NOW NORMALIZED TO UNITY

  SHELL TYPE  PRIMITIVE        EXPONENT          CONTRACTION COEFFICIENT(S)

 S         

      1   S       1         55510.0000000    0.000587229760
      1   S       2          8326.7000000    0.004532413947
      1   S       3          1895.6000000    0.023265261648
      1   S       4           536.7700000    0.089696133027
      1   S       5           174.6700000    0.254098332277
      1   S       6            62.5780000    0.438665087637
      1   S       7            23.5730000    0.314547135094
      1   S       8             5.8908000    0.032727897102

      2   S       9          8326.7000000   -0.000019755715
      2   S      10          1895.6000000   -0.000043822381
      2   S      11           536.7700000   -0.001730264906
      2   S      12           174.6700000   -0.009381263460
      2   S      13            62.5780000   -0.064050766303
      2   S      14            23.5730000   -0.082478179196
      2   S      15             5.8908000    0.478342956889
      2   S      16             2.1852000    0.626896670208

      3   S      17          1895.6000000    0.000016227260
      3   S      18           536.7700000    0.000191135619
      3   S      19           174.6700000    0.001952069674
      3   S      20            62.5780000    0.010578701087
      3   S      21            23.5730000    0.022164934551
      3   S      22             5.8908000   -0.184968323118
      3   S      23             2.1852000   -0.480920750976
      3   S      24             0.4528200    1.243822243872

      4   S      25             0.1620200    1.000000000000

      5   P      26           395.4500000    0.004642761329
      5   P      27            92.8340000    0.036023396489
      5   P      28            29.2660000    0.149058869978
      5   P      29            10.5950000    0.360033266263
      5   P      30             4.0272000    0.455756476221
      5   P      31             1.5484000    0.206167664178

      6   P      32            92.8340000    0.000169901442
      6   P      33            29.2660000   -0.002541839934
      6   P      34            10.5950000   -0.007867614595
      6   P      35             4.0272000   -0.037231009184
      6   P      36             1.5484000    0.161417246830
      6   P      37             0.4613400    0.902230419976

      7   P      38             0.1313100    1.000000000000

      8   D      39             0.5500000    1.000000000000

 O         

     15   S      40          2306.7000000    0.005424388755
     15   S      41           347.1500000    0.040474749465
     15   S      42            78.8900000    0.180219634554
     15   S      43            21.8760000    0.462370311787
     15   S      44             6.6646000    0.454888396263

     16   S      45           347.1500000   -0.000655003786
     16   S      46            78.8900000   -0.005362052952
     16   S      47            21.8760000   -0.074902158894
     16   S      48             6.6646000   -0.181442579655
     16   S      49             1.0669000    1.102006874042

     17   S      50             0.3070000    1.000000000000

     18   P      51            17.0220000    0.068979967443
     18   P      52             3.6838000    0.351985516325
     18   P      53             0.9923400    0.724036547822

     19   P      54             0.2448700    1.000000000000

     20   D      55             1.0000000    1.000000000000

 TOTAL NUMBER OF BASIS SET SHELLS             =   20
 NUMBER OF CARTESIAN GAUSSIAN BASIS FUNCTIONS =   49
 NOTE: THIS RUN WILL RESTRICT THE MO VARIATION SPACE TO SPHERICAL HARMONICS.
 THE NUMBER OF ORBITALS KEPT IN THE VARIATIONAL SPACE WILL BE PRINTED LATER.
 NUMBER OF ELECTRONS                          =   32
 CHARGE OF MOLECULE                           =    0
 SPIN MULTIPLICITY                            =    1
 NUMBER OF OCCUPIED ORBITALS (ALPHA)          =   16
 NUMBER OF OCCUPIED ORBITALS (BETA )          =   16
 TOTAL NUMBER OF ATOMS                        =    3
 THE NUCLEAR REPULSION ENERGY IS      113.8694316959

     LEBEDEV GRID-BASED DFT OPTIONS
     ------------------------------
     DFTTYP=PBE     
     NRAD  =      96     NLEB  =     302
     NRAD0 =      24     NLEB0 =     110
     SWOFF =    5.00E-03 (PURE SCF -> DFT)
     SWITCH=    3.00E-04 (COARSE -> TIGHT GRID)
     THRESH=    0.00E+00 GTHRE=    1.00E+00

 GRIMME'S EMPIRICAL DISPERSION CORRECTION= F

     $CONTRL OPTIONS
     ---------------
 SCFTYP=RHF          RUNTYP=ENERGY       EXETYP=RUN     
 MPLEVL=       0     CITYP =NONE         CCTYP =NONE         VBTYP =NONE    
 DFTTYP=PBE          TDDFT =NONE    
 MULT  =       1     ICHARG=       0     NZVAR =       0     COORD =ZMT     
 PP    =NONE         RELWFN=NONE         LOCAL =NONE         NUMGRD=       F
 ISPHER=       1     NOSYM =       0     MAXIT =      30     UNITS =ANGS    
 PLTORB=       F     MOLPLT=       F     AIMPAC=       F     FRIEND=        
 NPRINT=       7     IREST =       0     GEOM  =INPUT   
 NORMF =       0     NORMP =       0     ITOL  =      20     ICUT  =       9
 INTTYP=BEST         GRDTYP=BEST         QMTTOL= 1.0E-06

     $SYSTEM OPTIONS
     ---------------
  REPLICATED MEMORY=     1000000 WORDS (ON EVERY NODE).
 DISTRIBUTED MEMDDI=           0 MILLION WORDS IN AGGREGATE,
 MEMDDI DISTRIBUTED OVER   1 PROCESSORS IS           0 WORDS/PROCESSOR.
 TOTAL MEMORY REQUESTED ON EACH PROCESSOR=     1000000 WORDS.
 TIMLIM=      525600.00 MINUTES, OR     365.0 DAYS.
 PARALL= F  BALTYP=  DLB     KDIAG=    0  COREFL= F
 MXSEQ2=     300 MXSEQ3=     150

          ----------------
          PROPERTIES INPUT
          ----------------

     MOMENTS            FIELD           POTENTIAL          DENSITY
 IEMOM =       1   IEFLD =       0   IEPOT =       0   IEDEN =       0
 WHERE =COMASS     WHERE =NUCLEI     WHERE =NUCLEI     WHERE =NUCLEI  
 OUTPUT=BOTH       OUTPUT=BOTH       OUTPUT=BOTH       OUTPUT=BOTH    
 IEMINT=       0   IEFINT=       0                     IEDINT=       0
                                                       MORB  =       0
          EXTRAPOLATION IN EFFECT
          DIIS IN EFFECT
 ORBITAL PRINTING OPTION: NPREO=     1    49     2     1

     -------------------------------
     INTEGRAL TRANSFORMATION OPTIONS
     -------------------------------
     NWORD  =            0
     CUTOFF = 1.0E-09     MPTRAN =       0
     DIRTRF =       F     AOINTS =DUP     

          ----------------------
          INTEGRAL INPUT OPTIONS
          ----------------------
 NOPK  =       1 NORDER=       0 SCHWRZ=       F

   --- ENCODED Z MATRIX ---
 COORD  TYPE   I   J   K   L   M   N
    1      1    3   1
    2      1    2   1
    3      2    2   1   3

 THE DETERMINANT OF THE G MATRIX IS 10**(    -4)

 THE DETERMINANT OF THE G MATRIX IS 10**(    -4)
 * * * WARNING * * *
 YOUR B MATRIX HAS A SMALL DETERMINANT.
 THIS SUGGESTS YOU MAY HAVE BADLY CHOSEN COORDINATES.

     ------------------------------------------
     THE POINT GROUP IS CNV, NAXIS= 2, ORDER= 4
     ------------------------------------------

 -- VARIATIONAL SPACE WILL BE RESTRICTED TO PURE SPHERICAL HARMONICS ONLY --
 AFTER EXCLUDING CONTAMINANT COMBINATIONS FROM THE CARTESIAN GAUSSIAN BASIS
 SET, THE NUMBER OF SPHERICAL HARMONICS KEPT IN THE VARIATION SPACE IS   46

     DIMENSIONS OF THE SYMMETRY SUBSPACES ARE
 A1  =   19     A2  =    5     B1  =   14     B2  =    8

 ..... DONE SETTING UP THE RUN .....
 STEP CPU TIME =     0.01 TOTAL CPU TIME =        0.0 (    0.0 MIN)
 TOTAL WALL CLOCK TIME=        0.0 SECONDS, CPU UTILIZATION IS  50.00%

          ********************
          1 ELECTRON INTEGRALS
          ********************
 ...... END OF ONE-ELECTRON INTEGRALS ......
 STEP CPU TIME =     0.01 TOTAL CPU TIME =        0.0 (    0.0 MIN)
 TOTAL WALL CLOCK TIME=        0.0 SECONDS, CPU UTILIZATION IS 100.00%

          -------------
          GUESS OPTIONS
          -------------
          GUESS =HUCKEL            NORB  =       0          NORDER=       0
          MIX   =       F          PRTMO =       F          PUNMO =       F
          TOLZ  = 1.0E-08          TOLE  = 1.0E-05
          SYMDEN=       F          PURIFY=       F

 INITIAL GUESS ORBITALS GENERATED BY HUCKEL   ROUTINE.
 HUCKEL GUESS REQUIRES     21583 WORDS.

 STATISTICS FOR GENERATION OF SYMMETRY ORBITAL -Q- MATRIX
 NUMBER OF CARTESIAN ATOMIC ORBITALS=         49
 NUMBER OF SPHERICAL CONTAMINANTS DROPPED=     3
 NUMBER OF LINEARLY DEPENDENT MOS DROPPED=     0
 TOTAL NUMBER OF MOS IN VARIATION SPACE=      46

 SYMMETRIES FOR INITIAL GUESS ORBITALS FOLLOW.   BOTH SET(S).
    16 ORBITALS ARE OCCUPIED (    7 CORE ORBITALS).
     8=A1       9=?B1     10=A1      11=B2      12=?A1     13=?B1     14=A2  
    15=B1      16=A1      17=B2      18=B1      19=?A1     20=A1      21=A1  
    22=A1      23=A1      24=A1      25=A1      26=A1  
 ...... END OF INITIAL ORBITAL SELECTION ......
 STEP CPU TIME =     0.00 TOTAL CPU TIME =        0.0 (    0.0 MIN)
 TOTAL WALL CLOCK TIME=        0.0 SECONDS, CPU UTILIZATION IS  66.67%

                    ----------------------
                    AO INTEGRAL TECHNOLOGY
                    ----------------------
     S,P,L SHELL ROTATED AXIS INTEGRALS, REPROGRAMMED BY
        KAZUYA ISHIMURA (IMS) AND JOSE SIERRA (SYNSTAR).
     S,P,D,L SHELL ROTATED AXIS INTEGRALS PROGRAMMED BY
        KAZUYA ISHIMURA (INSTITUTE FOR MOLECULAR SCIENCE).
     S,P,D,F,G SHELL TO TOTAL QUARTET ANGULAR MOMENTUM SUM 5,
        ERIC PROGRAM BY GRAHAM FLETCHER (ELORET AND NASA ADVANCED
        SUPERCOMPUTING DIVISION, AMES RESEARCH CENTER).
     S,P,D,F,G,L SHELL GENERAL RYS QUADRATURE PROGRAMMED BY
        MICHEL DUPUIS (PACIFIC NORTHWEST NATIONAL LABORATORY).

          --------------------
          2 ELECTRON INTEGRALS
          --------------------

 THE -PK- OPTION IS OFF, THE INTEGRALS ARE NOT IN SUPERMATRIX FORM.
 STORING   15000 INTEGRALS/RECORD ON DISK, USING 12 BYTES/INTEGRAL.
 TWO ELECTRON INTEGRAL EVALUATION REQUIRES   90606 WORDS OF MEMORY.
 II,JST,KST,LST =  1  1  1  1 NREC =         1 INTLOC =    1
 II,JST,KST,LST =  2  1  1  1 NREC =         1 INTLOC =    2
 II,JST,KST,LST =  3  1  1  1 NREC =         1 INTLOC =    7
 II,JST,KST,LST =  4  1  1  1 NREC =         1 INTLOC =   22
 II,JST,KST,LST =  5  1  1  1 NREC =         1 INTLOC =   56
 II,JST,KST,LST =  6  1  1  1 NREC =         1 INTLOC =  125
 II,JST,KST,LST =  7  1  1  1 NREC =         1 INTLOC =  329
 II,JST,KST,LST =  8  1  1  1 NREC =         1 INTLOC =  776
 II,JST,KST,LST =  9  1  1  1 NREC =         1 INTLOC = 2864
 II,JST,KST,LST = 10  1  1  1 NREC =         1 INTLOC = 2864
 II,JST,KST,LST = 11  1  1  1 NREC =         1 INTLOC = 2864
 II,JST,KST,LST = 12  1  1  1 NREC =         1 INTLOC = 2864
 II,JST,KST,LST = 13  1  1  1 NREC =         1 INTLOC = 2864
 II,JST,KST,LST = 14  1  1  1 NREC =         1 INTLOC = 2864
 II,JST,KST,LST = 15  1  1  1 NREC =         1 INTLOC = 2864
 II,JST,KST,LST = 16  1  1  1 NREC =         1 INTLOC = 5120
 II,JST,KST,LST = 17  1  1  1 NREC =         1 INTLOC = 8470
 II,JST,KST,LST = 18  1  1  1 NREC =         1 INTLOC =12945
 II,JST,KST,LST = 19  1  1  1 NREC =         3 INTLOC = 1484
 II,JST,KST,LST = 20  1  1  1 NREC =         5 INTLOC = 3006
 TOTAL NUMBER OF NONZERO TWO-ELECTRON INTEGRALS =              183155
         13 INTEGRAL RECORDS WERE STORED ON DISK FILE  8.
  ...... END OF TWO-ELECTRON INTEGRALS .....
 STEP CPU TIME =     0.16 TOTAL CPU TIME =        0.2 (    0.0 MIN)
 TOTAL WALL CLOCK TIME=        0.2 SECONDS, CPU UTILIZATION IS  94.74%

          --------------------------
               R-PBE SCF CALCULATION
          --------------------------

     NUCLEAR ENERGY =       113.8694316959
     MAXIT =   30     NPUNCH=    2
     EXTRAP=T  DAMP=F  SHIFT=F  RSTRCT=F  DIIS=T  DEM=F  SOSCF=F
         DENSITY MATRIX CONVERGENCE THRESHOLD=  1.00E-05
     COARSE -> FINE DFT GRID SWITCH THRESHOLD=  3.00E-04 (SWITCH IN $DFT)
                   HF -> DFT SWITCH THRESHOLD=  5.00E-03 (SWOFF IN $DFT)
     MEMORY REQUIRED FOR RHF ITERS=    183108 WORDS.

 DFT CODE IS SWITCHING FROM THE FINE GRID NRAD= 96,  NLEB=  302
                      TO THE COARSE GRID NRAD0= 24, NLEB0=  110

     EXCHANGE FUNCTIONAL   =PBE       
     CORRELATION FUNCTIONAL=PBE       
     DFT THRESHOLD         =.460E-07
     GRID CHANGE THRESHOLD =.300E-03
 FOR AN EULER-MACLAURIN QUADRATURE USING  96 RADIAL POINTS:
 SMALLEST GAUSSIAN PRIMITIVE EXPONENT=        0.1313100000 OF TYPE -P-
 ON ATOM NUMBER   1 HAS RADIAL NORMALIZATION=  1.000000
  LARGEST GAUSSIAN PRIMITIVE EXPONENT=    55510.0000000000 OF TYPE -S-
 ON ATOM NUMBER   1 HAS RADIAL NORMALIZATION=  0.999999
 DFT IS SWITCHED OFF, PERFORMING PURE SCF UNTIL SWOFF THRESHOLD IS REACHED.

 ITER EX DEM     TOTAL ENERGY        E CHANGE  DENSITY CHANGE    DIIS ERROR
   1  0  0     -545.9877812332  -545.9877812332   0.362030094   1.325657051
          * * *   INITIATING DIIS PROCEDURE   * * *
   2  1  0     -546.8677870981    -0.8800058648   0.345096777   0.212062094
   3  2  0     -546.9548237122    -0.0870366142   0.104925217   0.206295767
   4  3  0     -547.0418802281    -0.0870565159   0.008936030   0.012813880
   5  4  0     -547.0425756338    -0.0006954057   0.006335047   0.005872115
   6  5  0     -547.0426751813    -0.0000995475   0.002640977   0.002183420
 CONVERGED TO SWOFF, SO DFT CALCULATION IS NOW SWITCHED ON.
          * * *   INITIATING DIIS PROCEDURE   * * *
   7  6  0     -548.1622861116    -1.1196109303   0.215828961   0.098583604
   8  7  0     -548.1662331644    -0.0039470528   0.179614159   0.103283121
   9  8  0     -548.1668117636    -0.0005785992   0.064291739   0.116106966
  10  9  0     -548.1947377186    -0.0279259550   0.016592324   0.010497598
  11 10  0     -548.1951003750    -0.0003626564   0.000870222   0.001122788
  12 11  0     -548.1951033210    -0.0000029460   0.000472283   0.000377211
  13 12  0     -548.1951036707    -0.0000003497   0.000040109   0.000049664
 DFT CODE IS SWITCHING BACK TO THE FINE GRID
          * * *   INITIATING DIIS PROCEDURE   * * *
  14 13  0     -548.1729313313     0.0221723394   0.004538990   0.007740033
  15 14  0     -548.1730589541    -0.0001276229   0.004510255   0.004237718
  16 15  0     -548.1730260557     0.0000328984   0.003927515   0.005579035
  17 16  0     -548.1730853973    -0.0000593416   0.000880955   0.000685077
  18 17  0     -548.1730869704    -0.0000015730   0.000085017   0.000066953
  19 18  0     -548.1730869866    -0.0000000162   0.000008165   0.000007686
  20 19  0     -548.1730869868    -0.0000000002   0.000001582   0.000001367
  21 20  0     -548.1730869868     0.0000000000   0.000000096   0.000000075

          -----------------
          DENSITY CONVERGED
          -----------------
     TIME TO FORM FOCK OPERATORS=       4.5 SECONDS (       0.2 SEC/ITER)
     TIME TO SOLVE SCF EQUATIONS=       0.0 SECONDS (       0.0 SEC/ITER)

 FINAL R-PBE ENERGY IS     -548.1730869868 AFTER  21 ITERATIONS
 DFT EXCHANGE + CORRELATION ENERGY =       -42.6633728262
 TOTAL ELECTRON NUMBER             =        32.0000525205

          ------------
          EIGENVECTORS
          ------------

                      1          2          3          4          5
                  -88.2030   -18.7605   -18.7605    -7.8352    -5.8550
                     A1         B1         A1         A1         B2  
    1  S  1  S    1.002984   0.000000  -0.000081  -0.273986   0.000000
    2  S  1  S   -0.010241   0.000000  -0.000275   1.039621   0.000000
    3  S  1  S    0.001922   0.000000  -0.001136   0.042104   0.000000
    4  S  1  S   -0.000721   0.000000   0.011162  -0.011574   0.000000
    5  S  1  X    0.000000  -0.000089   0.000000   0.000000   0.000000
    6  S  1  Y    0.000000   0.000000   0.000000   0.000000   0.996648
    7  S  1  Z    0.000030   0.000000   0.000046   0.009078   0.000000
    8  S  1  X    0.000000  -0.001299   0.000000   0.000000   0.000000
    9  S  1  Y    0.000000   0.000000   0.000000   0.000000   0.009673
   10  S  1  Z    0.000229   0.000000   0.001360   0.002214   0.000000
   11  S  1  X    0.000000  -0.003272   0.000000   0.000000   0.000000
   12  S  1  Y    0.000000   0.000000   0.000000   0.000000  -0.000392
   13  S  1  Z   -0.000028   0.000000   0.005114  -0.000697   0.000000
   14  S  1 XX    0.000051   0.000000   0.000411   0.000463   0.000000
   15  S  1 YY   -0.000089   0.000000  -0.000484  -0.000662   0.000000
   16  S  1 ZZ    0.000038   0.000000   0.000073   0.000199   0.000000
   17  S  1 XY    0.000000   0.000000   0.000000   0.000000   0.000000
   18  S  1 XZ    0.000000   0.000070   0.000000   0.000000   0.000000
   19  S  1 YZ    0.000000   0.000000   0.000000   0.000000   0.000580
   20  O  2  S    0.000013   0.703253   0.703245  -0.000201   0.000000
   21  O  2  S    0.000012   0.026247   0.026056  -0.000278   0.000000
   22  O  2  S   -0.000111  -0.012439  -0.014061   0.000115   0.000000
   23  O  2  X   -0.000057   0.000890   0.000696  -0.000262   0.000000
   24  O  2  Y    0.000000   0.000000   0.000000   0.000000   0.000130
   25  O  2  Z    0.000055  -0.000930  -0.000803   0.000236   0.000000
   26  O  2  X   -0.000131  -0.002840  -0.002358  -0.000953   0.000000
   27  O  2  Y    0.000000   0.000000   0.000000   0.000000  -0.000084
   28  O  2  Z    0.000150   0.002060   0.002507   0.001147   0.000000
   29  O  2 XX   -0.000039  -0.000498   0.000240  -0.000091   0.000000
   30  O  2 YY    0.000077   0.000416  -0.000024   0.000136   0.000000
   31  O  2 ZZ   -0.000038   0.000082  -0.000215  -0.000046   0.000000
   32  O  2 XY    0.000000   0.000000   0.000000   0.000000   0.000105
   33  O  2 XZ    0.000132   0.000149   0.000388   0.000199   0.000000
   34  O  2 YZ    0.000000   0.000000   0.000000   0.000000  -0.000129
   35  O  3  S    0.000013  -0.703253   0.703245  -0.000201   0.000000
   36  O  3  S    0.000012  -0.026247   0.026056  -0.000278   0.000000
   37  O  3  S   -0.000111   0.012439  -0.014061   0.000115   0.000000
   38  O  3  X    0.000057   0.000890  -0.000696   0.000262   0.000000
   39  O  3  Y    0.000000   0.000000   0.000000   0.000000   0.000130
   40  O  3  Z    0.000055   0.000930  -0.000803   0.000236   0.000000
   41  O  3  X    0.000131  -0.002840   0.002358   0.000953   0.000000
   42  O  3  Y    0.000000   0.000000   0.000000   0.000000  -0.000084
   43  O  3  Z    0.000150  -0.002060   0.002507   0.001147   0.000000
   44  O  3 XX   -0.000039   0.000498   0.000240  -0.000091   0.000000
   45  O  3 YY    0.000077  -0.000416  -0.000024   0.000136   0.000000
   46  O  3 ZZ   -0.000038  -0.000082  -0.000215  -0.000046   0.000000
   47  O  3 XY    0.000000   0.000000   0.000000   0.000000  -0.000105
   48  O  3 XZ   -0.000132   0.000149  -0.000388  -0.000199   0.000000
   49  O  3 YZ    0.000000   0.000000   0.000000   0.000000  -0.000129

                      6          7          8          9         10
                   -5.8545    -5.8496    -1.1009    -0.9336    -0.5854
                     B1         A1         A1         B1         A1  
    1  S  1  S    0.000000   0.002646   0.051737   0.000000   0.066355
    2  S  1  S    0.000000  -0.010191  -0.148443   0.000000  -0.186369
    3  S  1  S    0.000000  -0.000013   0.300230   0.000000   0.421227
    4  S  1  S    0.000000  -0.000046   0.114976   0.000000   0.424705
    5  S  1  X    0.996375   0.000000   0.000000   0.135337   0.000000
    6  S  1  Y    0.000000   0.000000   0.000000   0.000000   0.000000
    7  S  1  Z    0.000000   0.996424  -0.093121   0.000000   0.098740
    8  S  1  X    0.010162   0.000000   0.000000  -0.263856   0.000000
    9  S  1  Y    0.000000   0.000000   0.000000   0.000000   0.000000
   10  S  1  Z    0.000000   0.009780   0.169762   0.000000  -0.209845
   11  S  1  X   -0.000279   0.000000   0.000000  -0.032506   0.000000
   12  S  1  Y    0.000000   0.000000   0.000000   0.000000   0.000000
   13  S  1  Z    0.000000  -0.000311  -0.001907   0.000000  -0.113093
   14  S  1 XX    0.000000  -0.000359   0.014369   0.000000   0.008631
   15  S  1 YY    0.000000  -0.000524  -0.038337   0.000000   0.025429
   16  S  1 ZZ    0.000000   0.000883   0.023968   0.000000  -0.034060
   17  S  1 XY    0.000000   0.000000   0.000000   0.000000   0.000000
   18  S  1 XZ    0.001133   0.000000   0.000000  -0.100622   0.000000
   19  S  1 YZ    0.000000   0.000000   0.000000   0.000000   0.000000
   20  O  2  S    0.000506  -0.000509  -0.119268  -0.147462   0.085790
   21  O  2  S   -0.000477   0.000499   0.233206   0.293600  -0.173425
   22  O  2  S    0.000071   0.000222   0.240864   0.331513  -0.283921
   23  O  2  X   -0.000571   0.000768   0.102614   0.060000   0.029852
   24  O  2  Y    0.000000   0.000000   0.000000   0.000000   0.000000
   25  O  2  Z    0.000710  -0.000679  -0.086456  -0.101828  -0.135319
   26  O  2  X    0.000027  -0.000031   0.029801   0.019063   0.008997
   27  O  2  Y    0.000000   0.000000   0.000000   0.000000   0.000000
   28  O  2  Z   -0.000087  -0.000169  -0.027495  -0.029429  -0.060709
   29  O  2 XX   -0.000050   0.000190   0.002695  -0.001131  -0.003254
   30  O  2 YY    0.000345  -0.000347  -0.006446  -0.003148  -0.004465
   31  O  2 ZZ   -0.000295   0.000157   0.003751   0.004279   0.007720
   32  O  2 XY    0.000000   0.000000   0.000000   0.000000   0.000000
   33  O  2 XZ    0.000551  -0.000644  -0.013704  -0.009317  -0.007978
   34  O  2 YZ    0.000000   0.000000   0.000000   0.000000   0.000000
   35  O  3  S   -0.000506  -0.000509  -0.119268   0.147462   0.085790
   36  O  3  S    0.000477   0.000499   0.233206  -0.293600  -0.173425
   37  O  3  S   -0.000071   0.000222   0.240864  -0.331513  -0.283921
   38  O  3  X   -0.000571  -0.000768  -0.102614   0.060000  -0.029852
   39  O  3  Y    0.000000   0.000000   0.000000   0.000000   0.000000
   40  O  3  Z   -0.000710  -0.000679  -0.086456   0.101828  -0.135319
   41  O  3  X    0.000027   0.000031  -0.029801   0.019063  -0.008997
   42  O  3  Y    0.000000   0.000000   0.000000   0.000000   0.000000
   43  O  3  Z    0.000087  -0.000169  -0.027495   0.029429  -0.060709
   44  O  3 XX    0.000050   0.000190   0.002695   0.001131  -0.003254
   45  O  3 YY   -0.000345  -0.000347  -0.006446   0.003148  -0.004465
   46  O  3 ZZ    0.000295   0.000157   0.003751  -0.004279   0.007720
   47  O  3 XY    0.000000   0.000000   0.000000   0.000000   0.000000
   48  O  3 XZ    0.000551   0.000644   0.013704  -0.009317   0.007978
   49  O  3 YZ    0.000000   0.000000   0.000000   0.000000   0.000000

                     11         12         13         14         15
                   -0.4653    -0.4387    -0.4173    -0.3137    -0.3017
                     B2         A1         B1         A1         A2  
    1  S  1  S    0.000000   0.002827   0.000000   0.014478   0.000000
    2  S  1  S    0.000000   0.025988   0.000000  -0.073820   0.000000
    3  S  1  S    0.000000   0.063291   0.000000   0.052791   0.000000
    4  S  1  S    0.000000  -0.237990   0.000000   0.417710   0.000000
    5  S  1  X    0.000000   0.000000  -0.172276   0.000000   0.000000
    6  S  1  Y   -0.206722   0.000000   0.000000   0.000000   0.000000
    7  S  1  Z    0.000000  -0.165893   0.000000   0.118237   0.000000
    8  S  1  X    0.000000   0.000000   0.409236   0.000000   0.000000
    9  S  1  Y    0.480324   0.000000   0.000000   0.000000   0.000000
   10  S  1  Z    0.000000   0.387092   0.000000  -0.275972   0.000000
   11  S  1  X    0.000000   0.000000   0.103571   0.000000   0.000000
   12  S  1  Y    0.228677   0.000000   0.000000   0.000000   0.000000
   13  S  1  Z    0.000000   0.089845   0.000000  -0.120148   0.000000
   14  S  1 XX    0.000000  -0.063294   0.000000  -0.133371   0.000000
   15  S  1 YY    0.000000  -0.013177   0.000000   0.042907   0.000000
   16  S  1 ZZ    0.000000   0.076471   0.000000   0.090464   0.000000
   17  S  1 XY    0.000000   0.000000   0.000000   0.000000  -0.131556
   18  S  1 XZ    0.000000   0.000000   0.044598   0.000000   0.000000
   19  S  1 YZ    0.072668   0.000000   0.000000   0.000000   0.000000
   20  O  2  S    0.000000   0.059427  -0.070502  -0.001254   0.000000
   21  O  2  S    0.000000  -0.120748   0.140609  -0.003153   0.000000
   22  O  2  S    0.000000  -0.215227   0.285694  -0.010023   0.000000
   23  O  2  X    0.000000   0.350436  -0.158886   0.108712   0.000000
   24  O  2  Y    0.302044   0.000000   0.000000   0.000000   0.471182
   25  O  2  Z    0.000000  -0.020737   0.326872   0.399882   0.000000
   26  O  2  X    0.000000   0.204730  -0.092538   0.084629   0.000000
   27  O  2  Y    0.169140   0.000000   0.000000   0.000000   0.339413
   28  O  2  Z    0.000000  -0.014626   0.176772   0.290847   0.000000
   29  O  2 XX    0.000000   0.017959   0.003722   0.012156   0.000000
   30  O  2 YY    0.000000  -0.007040   0.009131   0.004628   0.000000
   31  O  2 ZZ    0.000000  -0.010919  -0.012853  -0.016785   0.000000
   32  O  2 XY    0.017702   0.000000   0.000000   0.000000   0.014325
   33  O  2 XZ    0.000000  -0.010071   0.010097   0.010676   0.000000
   34  O  2 YZ   -0.016557   0.000000   0.000000   0.000000  -0.019811
   35  O  3  S    0.000000   0.059427   0.070502  -0.001254   0.000000
   36  O  3  S    0.000000  -0.120748  -0.140609  -0.003153   0.000000
   37  O  3  S    0.000000  -0.215227  -0.285694  -0.010023   0.000000
   38  O  3  X    0.000000  -0.350436  -0.158886  -0.108712   0.000000
   39  O  3  Y    0.302044   0.000000   0.000000   0.000000  -0.471182
   40  O  3  Z    0.000000  -0.020737  -0.326872   0.399882   0.000000
   41  O  3  X    0.000000  -0.204730  -0.092538  -0.084629   0.000000
   42  O  3  Y    0.169140   0.000000   0.000000   0.000000  -0.339413
   43  O  3  Z    0.000000  -0.014626  -0.176772   0.290847   0.000000
   44  O  3 XX    0.000000   0.017959  -0.003722   0.012156   0.000000
   45  O  3 YY    0.000000  -0.007040  -0.009131   0.004628   0.000000
   46  O  3 ZZ    0.000000  -0.010919   0.012853  -0.016785   0.000000
   47  O  3 XY   -0.017702   0.000000   0.000000   0.000000   0.014325
   48  O  3 XZ    0.000000   0.010071   0.010097  -0.010676   0.000000
   49  O  3 YZ   -0.016557   0.000000   0.000000   0.000000   0.019811

                     16         17         18         19         20
                   -0.2337    -0.1610    -0.0207     0.0788     0.3326
                     B1         B2         B1         A1         B2  
    1  S  1  S    0.000000   0.000000   0.000000   0.020215   0.000000
    2  S  1  S    0.000000   0.000000   0.000000  -0.158115   0.000000
    3  S  1  S    0.000000   0.000000   0.000000   0.017079   0.000000
    4  S  1  S    0.000000   0.000000   0.000000   1.332616   0.000000
    5  S  1  X   -0.012825   0.000000  -0.159869   0.000000   0.000000
    6  S  1  Y    0.000000  -0.205508   0.000000   0.000000   0.287492
    7  S  1  Z    0.000000   0.000000   0.000000  -0.080625   0.000000
    8  S  1  X    0.024477   0.000000   0.403713   0.000000   0.000000
    9  S  1  Y    0.000000   0.522045   0.000000   0.000000  -1.101719
   10  S  1  Z    0.000000   0.000000   0.000000   0.208804   0.000000
   11  S  1  X    0.204284   0.000000   0.943061   0.000000   0.000000
   12  S  1  Y    0.000000   0.540221   0.000000   0.000000   1.224205
   13  S  1  Z    0.000000   0.000000   0.000000   1.334072   0.000000
   14  S  1 XX    0.000000   0.000000   0.000000  -0.085378   0.000000
   15  S  1 YY    0.000000   0.000000   0.000000   0.274792   0.000000
   16  S  1 ZZ    0.000000   0.000000   0.000000  -0.189414   0.000000
   17  S  1 XY    0.000000   0.000000   0.000000   0.000000   0.000000
   18  S  1 XZ   -0.119147   0.000000  -0.241547   0.000000   0.000000
   19  S  1 YZ    0.000000  -0.123822   0.000000   0.000000  -0.199853
   20  O  2  S   -0.015648   0.000000  -0.035840   0.062795   0.000000
   21  O  2  S    0.035319   0.000000   0.053914  -0.069622   0.000000
   22  O  2  S    0.105834   0.000000   0.382752  -0.846275   0.000000
   23  O  2  X    0.466778   0.000000  -0.058041  -0.158248   0.000000
   24  O  2  Y    0.000000  -0.353167   0.000000   0.000000   0.023705
   25  O  2  Z    0.156683   0.000000  -0.309818   0.113106   0.000000
   26  O  2  X    0.325262   0.000000  -0.083004  -0.350057   0.000000
   27  O  2  Y    0.000000  -0.340404   0.000000   0.000000  -0.095517
   28  O  2  Z    0.118646   0.000000  -0.315726   0.154551   0.000000
   29  O  2 XX    0.017483   0.000000  -0.002379  -0.009080   0.000000
   30  O  2 YY   -0.000244   0.000000   0.003143   0.014306   0.000000
   31  O  2 ZZ   -0.017238   0.000000  -0.000764  -0.005226   0.000000
   32  O  2 XY    0.000000  -0.006154   0.000000   0.000000  -0.030210
   33  O  2 XZ   -0.011931   0.000000   0.001660  -0.002602   0.000000
   34  O  2 YZ    0.000000   0.000606   0.000000   0.000000   0.020853
   35  O  3  S    0.015648   0.000000   0.035840   0.062795   0.000000
   36  O  3  S   -0.035319   0.000000  -0.053914  -0.069622   0.000000
   37  O  3  S   -0.105834   0.000000  -0.382752  -0.846275   0.000000
   38  O  3  X    0.466778   0.000000  -0.058041   0.158248   0.000000
   39  O  3  Y    0.000000  -0.353167   0.000000   0.000000   0.023705
   40  O  3  Z   -0.156683   0.000000   0.309818   0.113106   0.000000
   41  O  3  X    0.325262   0.000000  -0.083004   0.350057   0.000000
   42  O  3  Y    0.000000  -0.340404   0.000000   0.000000  -0.095517
   43  O  3  Z   -0.118646   0.000000   0.315726   0.154551   0.000000
   44  O  3 XX   -0.017483   0.000000   0.002379  -0.009080   0.000000
   45  O  3 YY    0.000244   0.000000  -0.003143   0.014306   0.000000
   46  O  3 ZZ    0.017238   0.000000   0.000764  -0.005226   0.000000
   47  O  3 XY    0.000000   0.006154   0.000000   0.000000   0.030210
   48  O  3 XZ   -0.011931   0.000000   0.001660   0.002602   0.000000
   49  O  3 YZ    0.000000   0.000606   0.000000   0.000000   0.020853

                     21         22         23         24         25
                    0.3801     0.4031     0.4489     0.5494     0.5728
                     A1         B1         A1         A2         B2  
    1  S  1  S   -0.068495   0.000000  -0.096233   0.000000   0.000000
    2  S  1  S   -0.234504   0.000000  -0.333443   0.000000   0.000000
    3  S  1  S   -1.041535   0.000000  -1.459334   0.000000   0.000000
    4  S  1  S    1.277652   0.000000   2.125493   0.000000   0.000000
    5  S  1  X    0.000000   0.275722   0.000000   0.000000   0.000000
    6  S  1  Y    0.000000   0.000000   0.000000   0.000000   0.053771
    7  S  1  Z   -0.240779   0.000000   0.151649   0.000000   0.000000
    8  S  1  X    0.000000  -0.993066   0.000000   0.000000   0.000000
    9  S  1  Y    0.000000   0.000000   0.000000   0.000000  -0.240120
   10  S  1  Z    0.913723   0.000000  -0.505953   0.000000   0.000000
   11  S  1  X    0.000000   1.415840   0.000000   0.000000   0.000000
   12  S  1  Y    0.000000   0.000000   0.000000   0.000000   0.330599
   13  S  1  Z   -0.756997   0.000000   0.971859   0.000000   0.000000
   14  S  1 XX   -0.244578   0.000000   0.289264   0.000000   0.000000
   15  S  1 YY    0.302275   0.000000  -0.292476   0.000000   0.000000
   16  S  1 ZZ   -0.057698   0.000000   0.003211   0.000000   0.000000
   17  S  1 XY    0.000000   0.000000   0.000000   0.951385   0.000000
   18  S  1 XZ    0.000000   0.371222   0.000000   0.000000   0.000000
   19  S  1 YZ    0.000000   0.000000   0.000000   0.000000   0.894250
   20  O  2  S    0.011465  -0.012995   0.014566   0.000000   0.000000
   21  O  2  S   -0.070485  -0.053444   0.015862   0.000000   0.000000
   22  O  2  S   -0.002580   0.533670  -0.661800   0.000000   0.000000
   23  O  2  X   -0.060282  -0.211865   0.244566   0.000000   0.000000
   24  O  2  Y    0.000000   0.000000   0.000000   0.296199  -0.355411
   25  O  2  Z    0.020540   0.126360  -0.202698   0.000000   0.000000
   26  O  2  X   -0.062318   0.066816  -0.133983   0.000000   0.000000
   27  O  2  Y    0.000000   0.000000   0.000000  -0.001086   0.029496
   28  O  2  Z    0.082599  -0.156437   0.127977   0.000000   0.000000
   29  O  2 XX    0.016055  -0.008264  -0.040485   0.000000   0.000000
   30  O  2 YY    0.010549  -0.027853   0.033767   0.000000   0.000000
   31  O  2 ZZ   -0.026604   0.036116   0.006718   0.000000   0.000000
   32  O  2 XY    0.000000   0.000000   0.000000  -0.008625   0.046013
   33  O  2 XZ   -0.000477  -0.039716   0.061580   0.000000   0.000000
   34  O  2 YZ    0.000000   0.000000   0.000000   0.049421  -0.004112
   35  O  3  S    0.011465   0.012995   0.014566   0.000000   0.000000
   36  O  3  S   -0.070485   0.053444   0.015862   0.000000   0.000000
   37  O  3  S   -0.002580  -0.533670  -0.661800   0.000000   0.000000
   38  O  3  X    0.060282  -0.211865  -0.244566   0.000000   0.000000
   39  O  3  Y    0.000000   0.000000   0.000000  -0.296199  -0.355411
   40  O  3  Z    0.020540  -0.126360  -0.202698   0.000000   0.000000
   41  O  3  X    0.062318   0.066816   0.133983   0.000000   0.000000
   42  O  3  Y    0.000000   0.000000   0.000000   0.001086   0.029496
   43  O  3  Z    0.082599   0.156437   0.127977   0.000000   0.000000
   44  O  3 XX    0.016055   0.008264  -0.040485   0.000000   0.000000
   45  O  3 YY    0.010549   0.027853   0.033767   0.000000   0.000000
   46  O  3 ZZ   -0.026604  -0.036116   0.006718   0.000000   0.000000
   47  O  3 XY    0.000000   0.000000   0.000000  -0.008625  -0.046013
   48  O  3 XZ    0.000477  -0.039716  -0.061580   0.000000   0.000000
   49  O  3 YZ    0.000000   0.000000   0.000000  -0.049421  -0.004112

                     26         27         28         29         30
                    0.6197     0.6465     0.6681     0.7703     0.8122
                     A1         A1         B1         A1         B2  
    1  S  1  S    0.012004   0.028935   0.000000   0.004784   0.000000
    2  S  1  S    0.022892   0.071984   0.000000   0.049696   0.000000
    3  S  1  S    0.171088   0.416528   0.000000   0.114340   0.000000
    4  S  1  S    0.956114   0.800596   0.000000  -0.293259   0.000000
    5  S  1  X    0.000000   0.000000  -0.159836   0.000000   0.000000
    6  S  1  Y    0.000000   0.000000   0.000000   0.000000  -0.026564
    7  S  1  Z   -0.042746  -0.169681   0.000000   0.000848   0.000000
    8  S  1  X    0.000000   0.000000   0.871300   0.000000   0.000000
    9  S  1  Y    0.000000   0.000000   0.000000   0.000000   0.084645
   10  S  1  Z    0.288257   0.804844   0.000000  -0.019931   0.000000
   11  S  1  X    0.000000   0.000000   0.090426   0.000000   0.000000
   12  S  1  Y    0.000000   0.000000   0.000000   0.000000  -0.738860
   13  S  1  Z    0.514244  -0.137329   0.000000  -0.495130   0.000000
   14  S  1 XX   -0.474513   0.755862   0.000000   0.191146   0.000000
   15  S  1 YY   -0.361778  -0.500852   0.000000   0.174720   0.000000
   16  S  1 ZZ    0.836291  -0.255010   0.000000  -0.365867   0.000000
   17  S  1 XY    0.000000   0.000000   0.000000   0.000000   0.000000
   18  S  1 XZ    0.000000   0.000000   0.527324   0.000000   0.000000
   19  S  1 YZ    0.000000   0.000000   0.000000   0.000000  -0.462966
   20  O  2  S    0.039131   0.049468  -0.065298  -0.002222   0.000000
   21  O  2  S   -0.068534  -0.143520   0.137887   0.001423   0.000000
   22  O  2  S   -0.516594  -0.373430   0.570531   0.175081   0.000000
   23  O  2  X   -0.035196   0.153313  -0.198741  -0.399291   0.000000
   24  O  2  Y    0.000000   0.000000   0.000000   0.000000  -0.555960
   25  O  2  Z   -0.327928   0.043139   0.194521  -0.450171   0.000000
   26  O  2  X   -0.522924  -0.471895   0.908346   0.544346   0.000000
   27  O  2  Y    0.000000   0.000000   0.000000   0.000000   0.918381
   28  O  2  Z    0.435150   0.647395  -0.786535   0.528087   0.000000
   29  O  2 XX    0.045821  -0.011394   0.003235  -0.026020   0.000000
   30  O  2 YY   -0.001424  -0.029808   0.000287  -0.009067   0.000000
   31  O  2 ZZ   -0.044397   0.041202  -0.003523   0.035087   0.000000
   32  O  2 XY    0.000000   0.000000   0.000000   0.000000  -0.024925
   33  O  2 XZ    0.004411  -0.010053  -0.000618   0.004782   0.000000
   34  O  2 YZ    0.000000   0.000000   0.000000   0.000000   0.039127
   35  O  3  S    0.039131   0.049468   0.065298  -0.002222   0.000000
   36  O  3  S   -0.068534  -0.143520  -0.137887   0.001423   0.000000
   37  O  3  S   -0.516594  -0.373430  -0.570531   0.175081   0.000000
   38  O  3  X    0.035196  -0.153313  -0.198741   0.399291   0.000000
   39  O  3  Y    0.000000   0.000000   0.000000   0.000000  -0.555960
   40  O  3  Z   -0.327928   0.043139  -0.194521  -0.450171   0.000000
   41  O  3  X    0.522924   0.471895   0.908346  -0.544346   0.000000
   42  O  3  Y    0.000000   0.000000   0.000000   0.000000   0.918381
   43  O  3  Z    0.435150   0.647395   0.786535   0.528087   0.000000
   44  O  3 XX    0.045821  -0.011394  -0.003235  -0.026020   0.000000
   45  O  3 YY   -0.001424  -0.029808  -0.000287  -0.009067   0.000000
   46  O  3 ZZ   -0.044397   0.041202   0.003523   0.035087   0.000000
   47  O  3 XY    0.000000   0.000000   0.000000   0.000000   0.024925
   48  O  3 XZ   -0.004411   0.010053  -0.000618  -0.004782   0.000000
   49  O  3 YZ    0.000000   0.000000   0.000000   0.000000   0.039127

                     31         32         33         34         35
                    0.8172     0.9309     0.9909     1.1986     1.6120
                     A2         B1         A1         B1         B1  
    1  S  1  S    0.000000   0.000000   0.012761   0.000000   0.000000
    2  S  1  S    0.000000   0.000000   0.259274   0.000000   0.000000
    3  S  1  S    0.000000   0.000000   0.473440   0.000000   0.000000
    4  S  1  S    0.000000   0.000000  -0.627427   0.000000   0.000000
    5  S  1  X    0.000000   0.024981   0.000000  -0.112315  -0.027836
    6  S  1  Y    0.000000   0.000000   0.000000   0.000000   0.000000
    7  S  1  Z    0.000000   0.000000   0.094782   0.000000   0.000000
    8  S  1  X    0.000000  -0.078833   0.000000   0.341708   0.312694
    9  S  1  Y    0.000000   0.000000   0.000000   0.000000   0.000000
   10  S  1  Z    0.000000   0.000000  -0.183555   0.000000   0.000000
   11  S  1  X    0.000000   0.815600   0.000000   0.477330   0.667427
   12  S  1  Y    0.000000   0.000000   0.000000   0.000000   0.000000
   13  S  1  Z    0.000000   0.000000  -0.326796   0.000000   0.000000
   14  S  1 XX    0.000000   0.000000  -0.335143   0.000000   0.000000
   15  S  1 YY    0.000000   0.000000   0.761427   0.000000   0.000000
   16  S  1 ZZ    0.000000   0.000000  -0.426284   0.000000   0.000000
   17  S  1 XY    0.360905   0.000000   0.000000   0.000000   0.000000
   18  S  1 XZ    0.000000   0.057008   0.000000   1.122508   0.157448
   19  S  1 YZ    0.000000   0.000000   0.000000   0.000000   0.000000
   20  O  2  S    0.000000   0.003841  -0.033157  -0.035379   0.005702
   21  O  2  S    0.000000  -0.068702   0.253180   0.097161  -1.174060
   22  O  2  S    0.000000   0.226780   0.226846   0.552494   1.749145
   23  O  2  X    0.000000   0.416314   0.518021   0.418653  -0.020854
   24  O  2  Y   -0.584479   0.000000   0.000000   0.000000   0.000000
   25  O  2  Z    0.000000   0.458891  -0.336070  -0.461791   0.009224
   26  O  2  X    0.000000  -0.781717  -0.296976  -0.130474   0.417143
   27  O  2  Y    0.863106   0.000000   0.000000   0.000000   0.000000
   28  O  2  Z    0.000000  -0.813459   0.278514   0.020701  -0.355782
   29  O  2 XX    0.000000   0.057042  -0.052320   0.044947  -0.198336
   30  O  2 YY    0.000000  -0.025264   0.019358  -0.016547   0.208624
   31  O  2 ZZ    0.000000  -0.031778   0.032962  -0.028400  -0.010288
   32  O  2 XY   -0.047091   0.000000   0.000000   0.000000   0.000000
   33  O  2 XZ    0.000000   0.021670  -0.050905   0.036652   0.097083
   34  O  2 YZ    0.030799   0.000000   0.000000   0.000000   0.000000
   35  O  3  S    0.000000  -0.003841  -0.033157   0.035379  -0.005702
   36  O  3  S    0.000000   0.068702   0.253180  -0.097161   1.174060
   37  O  3  S    0.000000  -0.226780   0.226846  -0.552494  -1.749145
   38  O  3  X    0.000000   0.416314  -0.518021   0.418653  -0.020854
   39  O  3  Y    0.584479   0.000000   0.000000   0.000000   0.000000
   40  O  3  Z    0.000000  -0.458891  -0.336070   0.461791  -0.009224
   41  O  3  X    0.000000  -0.781717   0.296976  -0.130474   0.417143
   42  O  3  Y   -0.863106   0.000000   0.000000   0.000000   0.000000
   43  O  3  Z    0.000000   0.813459   0.278514  -0.020701   0.355782
   44  O  3 XX    0.000000  -0.057042  -0.052320  -0.044947   0.198336
   45  O  3 YY    0.000000   0.025264   0.019358   0.016547  -0.208624
   46  O  3 ZZ    0.000000   0.031778   0.032962   0.028400   0.010288
   47  O  3 XY   -0.047091   0.000000   0.000000   0.000000   0.000000
   48  O  3 XZ    0.000000   0.021670   0.050905   0.036652   0.097083
   49  O  3 YZ   -0.030799   0.000000   0.000000   0.000000   0.000000

                     36         37         38         39         40
                    1.6123     2.0584     2.0857     2.0901     2.1265
                     A1         B2         A1         B1         A2  
    1  S  1  S   -0.020937   0.000000  -0.009185   0.000000   0.000000
    2  S  1  S   -0.218352   0.000000  -0.061583   0.000000   0.000000
    3  S  1  S   -0.483464   0.000000  -0.175292   0.000000   0.000000
    4  S  1  S    2.513038   0.000000   0.772838   0.000000   0.000000
    5  S  1  X    0.000000   0.000000   0.000000  -0.025400   0.000000
    6  S  1  Y    0.000000  -0.006285   0.000000   0.000000   0.000000
    7  S  1  Z   -0.060378   0.000000   0.008180   0.000000   0.000000
    8  S  1  X    0.000000   0.000000   0.000000   0.083356   0.000000
    9  S  1  Y    0.000000   0.023356   0.000000   0.000000   0.000000
   10  S  1  Z    0.421835   0.000000   0.026348   0.000000   0.000000
   11  S  1  X    0.000000   0.000000   0.000000   0.059561   0.000000
   12  S  1  Y    0.000000   0.048283   0.000000   0.000000   0.000000
   13  S  1  Z    1.132053   0.000000   0.385010   0.000000   0.000000
   14  S  1 XX    0.126376   0.000000   0.029505   0.000000   0.000000
   15  S  1 YY   -0.400518   0.000000   0.064991   0.000000   0.000000
   16  S  1 ZZ    0.274143   0.000000  -0.094496   0.000000   0.000000
   17  S  1 XY    0.000000   0.000000   0.000000   0.000000  -0.029990
   18  S  1 XZ    0.000000   0.000000   0.000000  -0.073855   0.000000
   19  S  1 YZ    0.000000  -0.057815   0.000000   0.000000   0.000000
   20  O  2  S    0.004989   0.000000   0.000489  -0.000272   0.000000
   21  O  2  S    1.165454   0.000000   0.382152  -0.058517   0.000000
   22  O  2  S   -2.300011   0.000000  -0.690960   0.080424   0.000000
   23  O  2  X   -0.107105   0.000000   0.039382   0.014320   0.000000
   24  O  2  Y    0.000000   0.040421   0.000000   0.000000  -0.045074
   25  O  2  Z    0.055716   0.000000  -0.010813   0.014349   0.000000
   26  O  2  X   -0.384880   0.000000  -0.161699  -0.016528   0.000000
   27  O  2  Y    0.000000  -0.062150   0.000000   0.000000   0.069244
   28  O  2  Z    0.384125   0.000000   0.111428  -0.025132   0.000000
   29  O  2 XX   -0.111000   0.000000   0.429457  -0.125417   0.000000
   30  O  2 YY    0.062345   0.000000  -0.622484  -0.463833   0.000000
   31  O  2 ZZ    0.048655   0.000000   0.193028   0.589249   0.000000
   32  O  2 XY    0.000000   0.452042   0.000000   0.000000   0.576040
   33  O  2 XZ   -0.210190   0.000000   0.259926   0.347369   0.000000
   34  O  2 YZ    0.000000   0.542313   0.000000   0.000000   0.415770
   35  O  3  S    0.004989   0.000000   0.000489   0.000272   0.000000
   36  O  3  S    1.165454   0.000000   0.382152   0.058517   0.000000
   37  O  3  S   -2.300011   0.000000  -0.690960  -0.080424   0.000000
   38  O  3  X    0.107105   0.000000  -0.039382   0.014320   0.000000
   39  O  3  Y    0.000000   0.040421   0.000000   0.000000   0.045074
   40  O  3  Z    0.055716   0.000000  -0.010813  -0.014349   0.000000
   41  O  3  X    0.384880   0.000000   0.161699  -0.016528   0.000000
   42  O  3  Y    0.000000  -0.062150   0.000000   0.000000  -0.069244
   43  O  3  Z    0.384125   0.000000   0.111428   0.025132   0.000000
   44  O  3 XX   -0.111000   0.000000   0.429457   0.125417   0.000000
   45  O  3 YY    0.062345   0.000000  -0.622484   0.463833   0.000000
   46  O  3 ZZ    0.048655   0.000000   0.193028  -0.589249   0.000000
   47  O  3 XY    0.000000  -0.452042   0.000000   0.000000   0.576040
   48  O  3 XZ    0.210190   0.000000  -0.259926   0.347369   0.000000
   49  O  3 YZ    0.000000   0.542313   0.000000   0.000000  -0.415770

                     41         42         43         44         45
                    2.2669     2.3599     2.4356     2.4486     2.8845
                     A2         B2         A1         B1         B1  
    1  S  1  S    0.000000   0.000000  -0.004355   0.000000   0.000000
    2  S  1  S    0.000000   0.000000  -0.029382   0.000000   0.000000
    3  S  1  S    0.000000   0.000000  -0.093662   0.000000   0.000000
    4  S  1  S    0.000000   0.000000  -0.169316   0.000000   0.000000
    5  S  1  X    0.000000   0.000000   0.000000   0.051999  -0.194756
    6  S  1  Y    0.000000   0.077480   0.000000   0.000000   0.000000
    7  S  1  Z    0.000000   0.000000  -0.046668   0.000000   0.000000
    8  S  1  X    0.000000   0.000000   0.000000  -0.125581   1.249990
    9  S  1  Y    0.000000  -0.284050   0.000000   0.000000   0.000000
   10  S  1  Z    0.000000   0.000000   0.101631   0.000000   0.000000
   11  S  1  X    0.000000   0.000000   0.000000  -0.097488   0.393385
   12  S  1  Y    0.000000  -0.165437   0.000000   0.000000   0.000000
   13  S  1  Z    0.000000   0.000000   0.059960   0.000000   0.000000
   14  S  1 XX    0.000000   0.000000  -0.556009   0.000000   0.000000
   15  S  1 YY    0.000000   0.000000   0.021480   0.000000   0.000000
   16  S  1 ZZ    0.000000   0.000000   0.534529   0.000000   0.000000
   17  S  1 XY   -0.450644   0.000000   0.000000   0.000000   0.000000
   18  S  1 XZ    0.000000   0.000000   0.000000  -0.137737   0.870529
   19  S  1 YZ    0.000000  -0.467853   0.000000   0.000000   0.000000
   20  O  2  S    0.000000   0.000000   0.001302   0.002169  -0.043389
   21  O  2  S    0.000000   0.000000  -0.183495  -0.355911  -0.650887
   22  O  2  S    0.000000   0.000000   0.228738   0.387419   1.639231
   23  O  2  X    0.000000   0.000000  -0.049644  -0.175952   0.086782
   24  O  2  Y    0.056655  -0.032758   0.000000   0.000000   0.000000
   25  O  2  Z    0.000000   0.000000   0.040623  -0.011971  -0.112374
   26  O  2  X    0.000000   0.000000  -0.018041   0.407697   0.692972
   27  O  2  Y   -0.182643   0.205349   0.000000   0.000000   0.000000
   28  O  2  Z    0.000000   0.000000  -0.228328   0.120172  -0.622985
   29  O  2 XX    0.000000   0.000000  -0.576329   0.673199   0.243087
   30  O  2 YY    0.000000   0.000000  -0.156917  -0.300271  -0.496511
   31  O  2 ZZ    0.000000   0.000000   0.733246  -0.372929   0.253424
   32  O  2 XY   -0.438880   0.584143   0.000000   0.000000   0.000000
   33  O  2 XZ    0.000000   0.000000   0.039213   0.277808  -0.724457
   34  O  2 YZ    0.602940  -0.489914   0.000000   0.000000   0.000000
   35  O  3  S    0.000000   0.000000   0.001302  -0.002169   0.043389
   36  O  3  S    0.000000   0.000000  -0.183495   0.355911   0.650887
   37  O  3  S    0.000000   0.000000   0.228738  -0.387419  -1.639231
   38  O  3  X    0.000000   0.000000   0.049644  -0.175952   0.086782
   39  O  3  Y   -0.056655  -0.032758   0.000000   0.000000   0.000000
   40  O  3  Z    0.000000   0.000000   0.040623   0.011971   0.112374
   41  O  3  X    0.000000   0.000000   0.018041   0.407697   0.692972
   42  O  3  Y    0.182643   0.205349   0.000000   0.000000   0.000000
   43  O  3  Z    0.000000   0.000000  -0.228328  -0.120172   0.622985
   44  O  3 XX    0.000000   0.000000  -0.576329  -0.673199  -0.243087
   45  O  3 YY    0.000000   0.000000  -0.156917   0.300271   0.496511
   46  O  3 ZZ    0.000000   0.000000   0.733246   0.372929  -0.253424
   47  O  3 XY   -0.438880  -0.584143   0.000000   0.000000   0.000000
   48  O  3 XZ    0.000000   0.000000  -0.039213   0.277808  -0.724457
   49  O  3 YZ   -0.602940  -0.489914   0.000000   0.000000   0.000000

                     46
                    2.8972
                     A1  
    1  S  1  S   -0.052852
    2  S  1  S   -0.117046
    3  S  1  S   -0.822672
    4  S  1  S   -1.182065
    5  S  1  X    0.000000
    6  S  1  Y    0.000000
    7  S  1  Z    0.170354
    8  S  1  X    0.000000
    9  S  1  Y    0.000000
   10  S  1  Z   -1.100539
   11  S  1  X    0.000000
   12  S  1  Y    0.000000
   13  S  1  Z   -0.341341
   14  S  1 XX   -0.179837
   15  S  1 YY    0.429251
   16  S  1 ZZ   -0.249414
   17  S  1 XY    0.000000
   18  S  1 XZ    0.000000
   19  S  1 YZ    0.000000
   20  O  2  S   -0.034457
   21  O  2  S   -0.547604
   22  O  2  S    1.390972
   23  O  2  X    0.062058
   24  O  2  Y    0.000000
   25  O  2  Z   -0.058185
   26  O  2  X    0.546945
   27  O  2  Y    0.000000
   28  O  2  Z   -0.538999
   29  O  2 XX    0.242600
   30  O  2 YY   -0.380878
   31  O  2 ZZ    0.138278
   32  O  2 XY    0.000000
   33  O  2 XZ   -0.763695
   34  O  2 YZ    0.000000
   35  O  3  S   -0.034457
   36  O  3  S   -0.547604
   37  O  3  S    1.390972
   38  O  3  X   -0.062058
   39  O  3  Y    0.000000
   40  O  3  Z   -0.058185
   41  O  3  X   -0.546945
   42  O  3  Y    0.000000
   43  O  3  Z   -0.538999
   44  O  3 XX    0.242600
   45  O  3 YY   -0.380878
   46  O  3 ZZ    0.138278
   47  O  3 XY    0.000000
   48  O  3 XZ    0.763695
   49  O  3 YZ    0.000000
 ...... END OF RHF CALCULATION ......
 STEP CPU TIME =     4.55 TOTAL CPU TIME =        4.7 (    0.1 MIN)
 TOTAL WALL CLOCK TIME=        4.7 SECONDS, CPU UTILIZATION IS 100.00%

     ---------------------------------------------------------------------
     PROPERTIES FOR THE PBE      DFT FUNCTIONAL (RHF  TYPE) DENSITY MATRIX
     ---------------------------------------------------------------------

          -----------------
          ENERGY COMPONENTS
          -----------------

         WAVEFUNCTION NORMALIZATION =       1.0000000000

                ONE ELECTRON ENERGY =    -981.9800699875
                TWO ELECTRON ENERGY =     319.9375513049
           NUCLEAR REPULSION ENERGY =     113.8694316959
                                      ------------------
                       TOTAL ENERGY =    -548.1730869868

 ELECTRON-ELECTRON POTENTIAL ENERGY =     319.9375513049
  NUCLEUS-ELECTRON POTENTIAL ENERGY =   -1530.4165767227
   NUCLEUS-NUCLEUS POTENTIAL ENERGY =     113.8694316959
                                      ------------------
             TOTAL POTENTIAL ENERGY =   -1096.6095937219
               TOTAL KINETIC ENERGY =     548.4365067351
                 VIRIAL RATIO (V/T) =       1.9995196896

          ---------------------------------------
          MULLIKEN AND LOWDIN POPULATION ANALYSES
          ---------------------------------------

     ATOMIC MULLIKEN POPULATION IN EACH MOLECULAR ORBITAL

                      1          2          3          4          5

                  2.000000   2.000000   2.000000   2.000000   2.000000

    1             2.000028   0.000627   0.002242   2.001321   2.000001
    2            -0.000014   0.999687   0.998879  -0.000660   0.000000
    3            -0.000014   0.999687   0.998879  -0.000660   0.000000

                      6          7          8          9         10

                  2.000000   2.000000   2.000000   2.000000   2.000000

    1             1.999820   1.999735   0.714551   0.429331   1.257499
    2             0.000090   0.000132   0.642724   0.785334   0.371250
    3             0.000090   0.000132   0.642724   0.785334   0.371250

                     11         12         13         14         15

                  2.000000   2.000000   2.000000   2.000000   2.000000

    1             1.031935   0.545448   0.424251   0.518411   0.102482
    2             0.484033   0.727276   0.787874   0.740795   0.948759
    3             0.484033   0.727276   0.787874   0.740795   0.948759

                     16

                  2.000000

    1             0.224845
    2             0.887578
    3             0.887578

               ----- POPULATIONS IN EACH AO -----
                             MULLIKEN      LOWDIN
              1  S  1  S      2.00024     1.99579
              2  S  1  S      2.01025     1.95646
              3  S  1  S      0.95538     0.57229
              4  S  1  S      0.83963     0.54232
              5  S  1  X      1.99646     1.95567
              6  S  1  Y      1.99593     1.95463
              7  S  1  Z      1.99718     1.96271
              8  S  1  X      0.69686     0.62480
              9  S  1  Y      0.66588     0.61435
             10  S  1  Z      0.86153     0.81372
             11  S  1  X      0.21697     0.30956
             12  S  1  Y      0.33806     0.39231
             13  S  1  Z      0.19430     0.36732
             14  S  1 XX      0.10019     0.27959
             15  S  1 YY      0.08052     0.22873
             16  S  1 ZZ      0.10248     0.28531
             17  S  1 XY      0.16858     0.12497
             18  S  1 XZ      0.03207     0.20650
             19  S  1 YZ      0.00000     0.03076
             20  O  2  S      1.99794     1.98048
             21  O  2  S      0.82478     0.63946
             22  O  2  S      1.01437     0.54164
             23  O  2  X      1.09095     1.05804
             24  O  2  Y      0.87216     0.83652
             25  O  2  Z      0.94294     0.91211
             26  O  2  X      0.54138     0.59638
             27  O  2  Y      0.55220     0.59311
             28  O  2  Z      0.51228     0.60701
             29  O  2 XX      0.00547     0.19794
             30  O  2 YY      0.00282     0.20077
             31  O  2 ZZ      0.00387     0.20136
             32  O  2 XY      0.00801     0.00591
             33  O  2 XZ      0.00455     0.01443
             34  O  2 YZ      0.00000     0.00594
             35  O  3  S      1.99794     1.98048
             36  O  3  S      0.82478     0.63946
             37  O  3  S      1.01437     0.54164
             38  O  3  X      1.09095     1.05804
             39  O  3  Y      0.87216     0.83652
             40  O  3  Z      0.94294     0.91211
             41  O  3  X      0.54138     0.59638
             42  O  3  Y      0.55220     0.59311
             43  O  3  Z      0.51228     0.60701
             44  O  3 XX      0.00547     0.19794
             45  O  3 YY      0.00282     0.20077
             46  O  3 ZZ      0.00387     0.20136
             47  O  3 XY      0.00801     0.00591
             48  O  3 XZ      0.00455     0.01443
             49  O  3 YZ      0.00000     0.00594

          ----- MULLIKEN ATOMIC OVERLAP POPULATIONS -----
          (OFF-DIAGONAL ELEMENTS NEED TO BE MULTIPLIED BY 2)

             1           2           3

    1   14.4113115
    2    0.4206075   8.1755870
    3    0.4206075  -0.2224578   8.1755870

          TOTAL MULLIKEN AND LOWDIN ATOMIC POPULATIONS
       ATOM         MULL.POP.    CHARGE          LOW.POP.     CHARGE
    1 S            15.252527    0.747473        15.217796    0.782204
    2 O             8.373737   -0.373737         8.391102   -0.391102
    3 O             8.373737   -0.373737         8.391102   -0.391102

          MULLIKEN SPHERICAL HARMONIC POPULATIONS
       ATOM           S       P       D      F      G      H      I    TOTAL
    1 S             5.81    8.96    0.48   0.00   0.00   0.00   0.00   15.25
    2 O             3.84    4.51    0.02   0.00   0.00   0.00   0.00    8.37
    3 O             3.84    4.51    0.02   0.00   0.00   0.00   0.00    8.37

          -------------------------------
          BOND ORDER AND VALENCE ANALYSIS     BOND ORDER THRESHOLD=0.050
          -------------------------------

                   BOND                       BOND                       BOND
  ATOM PAIR DIST  ORDER      ATOM PAIR DIST  ORDER      ATOM PAIR DIST  ORDER
    1   2  1.400  1.879        1   3  1.400  1.879        2   3  1.980  0.198

                       TOTAL       BONDED        FREE
      ATOM            VALENCE     VALENCE     VALENCE
    1 S                 3.759       3.759       0.000
    2 O                 2.078       2.078       0.000
    3 O                 2.078       2.078       0.000

          ---------------------
          ELECTROSTATIC MOMENTS
          ---------------------

 POINT   1           X           Y           Z (BOHR)    CHARGE
                 0.000000    0.000000    0.000000        0.00 (A.U.)
         DX          DY          DZ         /D/  (DEBYE)
     0.000000    0.000000   -2.891552    2.891552
 ...... END OF PROPERTY EVALUATION ......
 STEP CPU TIME =     0.01 TOTAL CPU TIME =        4.7 (    0.1 MIN)
 TOTAL WALL CLOCK TIME=        4.7 SECONDS, CPU UTILIZATION IS 100.00%
               580000  WORDS OF DYNAMIC MEMORY USED
 EXECUTION OF GAMESS TERMINATED NORMALLY Thu Feb 26 00:15:11 2015
 DDI: 263624 bytes (0.3 MB / 0 MWords) used by master data server.

 ----------------------------------------
 CPU timing information for all processes
 ========================================
 0: 4.712 + 0.33 = 4.746
 ----------------------------------------
 ddikick.x: exited gracefully.
----- accounting info -----
Files used on the master node dftfe.crc.nd.edu were:
-rw-r--r-- 1 pmehta1 campus   37475 Feb 26 00:15 /tmp/gamess.dat
-rw-r--r-- 1 pmehta1 campus     141 Feb 26 00:15 /tmp/gamess.F05
-rw-r--r-- 1 pmehta1 campus 2340312 Feb 26 00:15 /tmp/gamess.F08
-rw-r--r-- 1 pmehta1 campus 1220440 Feb 26 00:15 /tmp/gamess.F10
Thu Feb 26 00:15:14 EST 2015
0.240u 0.177s 0:08.17 5.0%	0+0k 0+112io 0pf+0w
