----- GAMESS execution script 'rungms' -----
This job is running on host dftfe.crc.nd.edu
under operating system Linux at Thu Feb 26 00:17:41 EST 2015
Available scratch disk space (Kbyte units) at beginning of the job is
Filesystem     1K-blocks     Used Available Use% Mounted on
/dev/sda2      147771864 22814188 117451244  17% /
GAMESS temporary binary files will be written to /tmp
GAMESS supplementary output files will be written to /tmp
Copying input file gamess.inp to your run's scratch directory...

 Distributed Data Interface kickoff program.
 Initiating 1 compute processes on 1 nodes to run the following command:
 /opt/crc/gamess/2012R1/gamess/gamess.00.x gamess 

          ******************************************************
          *         GAMESS VERSION =  1 MAY 2012 (R1)          *
          *             FROM IOWA STATE UNIVERSITY             *
          * M.W.SCHMIDT, K.K.BALDRIDGE, J.A.BOATZ, S.T.ELBERT, *
          *   M.S.GORDON, J.H.JENSEN, S.KOSEKI, N.MATSUNAGA,   *
          *          K.A.NGUYEN, S.J.SU, T.L.WINDUS,           *
          *       TOGETHER WITH M.DUPUIS, J.A.MONTGOMERY       *
          *         J.COMPUT.CHEM.  14, 1347-1363(1993)        *
          **************** 64 BIT LINUX VERSION ****************

  SINCE 1993, STUDENTS AND POSTDOCS WORKING AT IOWA STATE UNIVERSITY
  AND ALSO IN THEIR VARIOUS JOBS AFTER LEAVING ISU HAVE MADE IMPORTANT
  CONTRIBUTIONS TO THE CODE:
     IVANA ADAMOVIC, CHRISTINE AIKENS, YURI ALEXEEV, POOJA ARORA,
     ANDREY ASADCHEV, ROB BELL, PRADIPTA BANDYOPADHYAY, JONATHAN BENTZ,
     BRETT BODE, GALINA CHABAN, WEI CHEN, CHEOL HO CHOI, PAUL DAY,
     ALBERT DEFUSCO, TIM DUDLEY, DMITRI FEDOROV, GRAHAM FLETCHER,
     MARK FREITAG, KURT GLAESEMANN, DAN KEMP, GRANT MERRILL,
     NORIYUKI MINEZAWA, JONATHAN MULLIN, TAKESHI NAGATA,
     SEAN NEDD, HEATHER NETZLOFF, BOSILJKA NJEGIC, RYAN OLSON, MIKE PAK,
     JIM SHOEMAKER, LYUDMILA SLIPCHENKO, SAROM SOK, JIE SONG,
     TETSUYA TAKETSUGU, SIMON WEBB, SOOHAENG YOO, FEDERICO ZAHARIEV

  ADDITIONAL CODE HAS BEEN PROVIDED BY COLLABORATORS IN OTHER GROUPS:
     IOWA STATE UNIVERSITY:
          JOE IVANIC, LAIMUTIS BYTAUTAS, KLAUS RUEDENBERG
     UNIVERSITY OF TOKYO: KIMIHIKO HIRAO, TAKAHITO NAKAJIMA,
          TAKAO TSUNEDA, MUNEAKI KAMIYA, SUSUMU YANAGISAWA,
          KIYOSHI YAGI, MAHITO CHIBA, SEIKEN TOKURA, NAOAKI KAWAKAMI
     UNIVERSITY OF AARHUS: FRANK JENSEN
     UNIVERSITY OF IOWA: VISVALDAS KAIRYS, HUI LI
     NATIONAL INST. OF STANDARDS AND TECHNOLOGY: WALT STEVENS, DAVID GARMER
     UNIVERSITY OF PISA: BENEDETTA MENNUCCI, JACOPO TOMASI
     UNIVERSITY OF MEMPHIS: HENRY KURTZ, PRAKASHAN KORAMBATH
     UNIVERSITY OF ALBERTA: TOBY ZENG, MARIUSZ KLOBUKOWSKI
     UNIVERSITY OF NEW ENGLAND: MARK SPACKMAN
     MIE UNIVERSITY: HIROAKI UMEDA
     MICHIGAN STATE UNIVERSITY:
          KAROL KOWALSKI, MARTA WLOCH, JEFFREY GOUR, JESSE LUTZ, PIOTR PIECUCH
     UNIVERSITY OF SILESIA: MONIKA MUSIAL, STANISLAW KUCHARSKI
     FACULTES UNIVERSITAIRES NOTRE-DAME DE LA PAIX:
          OLIVIER QUINET, BENOIT CHAMPAGNE
     UNIVERSITY OF CALIFORNIA - SANTA BARBARA: BERNARD KIRTMAN
     INSTITUTE FOR MOLECULAR SCIENCE:
          KAZUYA ISHIMURA, MICHIO KATOUDA, AND SHIGERU NAGASE
     UNIVERSITY OF NOTRE DAME: DAN CHIPMAN
     KYUSHU UNIVERSITY:
          HARUYUKI NAKANO,
          FENG LONG GU, JACEK KORCHOWIEC, MARCIN MAKOWSKI, AND YURIKO AOKI,
          HIROTOSHI MORI AND EISAKU MIYOSHI
     PENNSYLVANIA STATE UNIVERSITY:
          TZVETELIN IORDANOV, CHET SWALINA, JONATHAN SKONE,
          SHARON HAMMES-SCHIFFER
     WASEDA UNIVERSITY:
          MASATO KOBAYASHI, TOMOKO AKAMA, TSUGUKI TOUMA,
          TAKESHI YOSHIKAWA, YASUHIRO IKABATA, HIROMI NAKAI
     UNIVERSITY OF NEBRASKA:
          PEIFENG SU, DEJUN SI, NANDUN THELLAMUREGE, YALI WANG, HUI LI
     UNIVERSITY OF ZURICH:
          ROBERTO PEVERATI, KIM BALDRIDGE
     N. COPERNICUS UNIVERSITY AND JACKSON STATE UNIVERSITY:
          MARIA BARYSZ

 EXECUTION OF GAMESS BEGUN Thu Feb 26 00:17:41 2015

            ECHO OF THE FIRST FEW INPUT CARDS -
 INPUT CARD> $BASIS GBASIS=PC1 $END                                                         
 INPUT CARD> $CONTRL COORD=ZMT ISPHER=1 RUNTYP=ENERGY DFTTYP=PBE $END                       
 INPUT CARD>                                                                                
 INPUT CARD> $DATA                                                                          
 INPUT CARD>Title                                                                           
 INPUT CARD>Cnv 2                                                                           
 INPUT CARD>                                                                                
 INPUT CARD>S                                                                               
 INPUT CARD>O 1 1.60                                                                        
 INPUT CARD>O 1 1.60 2 90.0                                                                 
 INPUT CARD> $END                                                                           
    1000000 WORDS OF MEMORY AVAILABLE

     BASIS OPTIONS
     -------------
     GBASIS=PC1          IGAUSS=       0      POLAR=NONE    
     NDFUNC=       0     NFFUNC=       0     DIFFSP=       F
     NPFUNC=       0      DIFFS=       F     BASNAM=        


     RUN TITLE
     ---------
 Title                                                                           

 THE POINT GROUP OF THE MOLECULE IS CNV     
 THE ORDER OF THE PRINCIPAL AXIS IS     2

 YOUR FULLY SUBSTITUTED Z-MATRIX IS
 S   
 O      1   1.6000000
 O      1   1.6000000  2   90.0000

 THE MOMENTS OF INERTIA ARE (AMU-ANGSTROM**2)
 IXX=    20.468   IYY=    40.947   IZZ=    61.415

 ATOM      ATOMIC                      COORDINATES (BOHR)
           CHARGE         X                   Y                   Z
 S          16.0     0.0000000000        0.0000000000       -1.0692871029
 O           8.0    -2.1379808968        0.0000000000        1.0686937939
 O           8.0     2.1379808968        0.0000000000        1.0686937939

          INTERNUCLEAR DISTANCES (ANGS.)
          ------------------------------

                1 S          2 O          3 O     

   1 S       0.0000000    1.6000000 *  1.6000000 *
   2 O       1.6000000 *  0.0000000    2.2627417 *
   3 O       1.6000000 *  2.2627417 *  0.0000000  

  * ... LESS THAN  3.000


     ATOMIC BASIS SET
     ----------------
 THE CONTRACTED PRIMITIVE FUNCTIONS HAVE BEEN UNNORMALIZED
 THE CONTRACTED BASIS FUNCTIONS ARE NOW NORMALIZED TO UNITY

  SHELL TYPE  PRIMITIVE        EXPONENT          CONTRACTION COEFFICIENT(S)

 S         

      1   S       1         55510.0000000    0.000587229760
      1   S       2          8326.7000000    0.004532413947
      1   S       3          1895.6000000    0.023265261648
      1   S       4           536.7700000    0.089696133027
      1   S       5           174.6700000    0.254098332277
      1   S       6            62.5780000    0.438665087637
      1   S       7            23.5730000    0.314547135094
      1   S       8             5.8908000    0.032727897102

      2   S       9          8326.7000000   -0.000019755715
      2   S      10          1895.6000000   -0.000043822381
      2   S      11           536.7700000   -0.001730264906
      2   S      12           174.6700000   -0.009381263460
      2   S      13            62.5780000   -0.064050766303
      2   S      14            23.5730000   -0.082478179196
      2   S      15             5.8908000    0.478342956889
      2   S      16             2.1852000    0.626896670208

      3   S      17          1895.6000000    0.000016227260
      3   S      18           536.7700000    0.000191135619
      3   S      19           174.6700000    0.001952069674
      3   S      20            62.5780000    0.010578701087
      3   S      21            23.5730000    0.022164934551
      3   S      22             5.8908000   -0.184968323118
      3   S      23             2.1852000   -0.480920750976
      3   S      24             0.4528200    1.243822243872

      4   S      25             0.1620200    1.000000000000

      5   P      26           395.4500000    0.004642761329
      5   P      27            92.8340000    0.036023396489
      5   P      28            29.2660000    0.149058869978
      5   P      29            10.5950000    0.360033266263
      5   P      30             4.0272000    0.455756476221
      5   P      31             1.5484000    0.206167664178

      6   P      32            92.8340000    0.000169901442
      6   P      33            29.2660000   -0.002541839934
      6   P      34            10.5950000   -0.007867614595
      6   P      35             4.0272000   -0.037231009184
      6   P      36             1.5484000    0.161417246830
      6   P      37             0.4613400    0.902230419976

      7   P      38             0.1313100    1.000000000000

      8   D      39             0.5500000    1.000000000000

 O         

     15   S      40          2306.7000000    0.005424388755
     15   S      41           347.1500000    0.040474749465
     15   S      42            78.8900000    0.180219634554
     15   S      43            21.8760000    0.462370311787
     15   S      44             6.6646000    0.454888396263

     16   S      45           347.1500000   -0.000655003786
     16   S      46            78.8900000   -0.005362052952
     16   S      47            21.8760000   -0.074902158894
     16   S      48             6.6646000   -0.181442579655
     16   S      49             1.0669000    1.102006874042

     17   S      50             0.3070000    1.000000000000

     18   P      51            17.0220000    0.068979967443
     18   P      52             3.6838000    0.351985516325
     18   P      53             0.9923400    0.724036547822

     19   P      54             0.2448700    1.000000000000

     20   D      55             1.0000000    1.000000000000

 TOTAL NUMBER OF BASIS SET SHELLS             =   20
 NUMBER OF CARTESIAN GAUSSIAN BASIS FUNCTIONS =   49
 NOTE: THIS RUN WILL RESTRICT THE MO VARIATION SPACE TO SPHERICAL HARMONICS.
 THE NUMBER OF ORBITALS KEPT IN THE VARIATIONAL SPACE WILL BE PRINTED LATER.
 NUMBER OF ELECTRONS                          =   32
 CHARGE OF MOLECULE                           =    0
 SPIN MULTIPLICITY                            =    1
 NUMBER OF OCCUPIED ORBITALS (ALPHA)          =   16
 NUMBER OF OCCUPIED ORBITALS (BETA )          =   16
 TOTAL NUMBER OF ATOMS                        =    3
 THE NUCLEAR REPULSION ENERGY IS       99.6357527339

     LEBEDEV GRID-BASED DFT OPTIONS
     ------------------------------
     DFTTYP=PBE     
     NRAD  =      96     NLEB  =     302
     NRAD0 =      24     NLEB0 =     110
     SWOFF =    5.00E-03 (PURE SCF -> DFT)
     SWITCH=    3.00E-04 (COARSE -> TIGHT GRID)
     THRESH=    0.00E+00 GTHRE=    1.00E+00

 GRIMME'S EMPIRICAL DISPERSION CORRECTION= F

     $CONTRL OPTIONS
     ---------------
 SCFTYP=RHF          RUNTYP=ENERGY       EXETYP=RUN     
 MPLEVL=       0     CITYP =NONE         CCTYP =NONE         VBTYP =NONE    
 DFTTYP=PBE          TDDFT =NONE    
 MULT  =       1     ICHARG=       0     NZVAR =       0     COORD =ZMT     
 PP    =NONE         RELWFN=NONE         LOCAL =NONE         NUMGRD=       F
 ISPHER=       1     NOSYM =       0     MAXIT =      30     UNITS =ANGS    
 PLTORB=       F     MOLPLT=       F     AIMPAC=       F     FRIEND=        
 NPRINT=       7     IREST =       0     GEOM  =INPUT   
 NORMF =       0     NORMP =       0     ITOL  =      20     ICUT  =       9
 INTTYP=BEST         GRDTYP=BEST         QMTTOL= 1.0E-06

     $SYSTEM OPTIONS
     ---------------
  REPLICATED MEMORY=     1000000 WORDS (ON EVERY NODE).
 DISTRIBUTED MEMDDI=           0 MILLION WORDS IN AGGREGATE,
 MEMDDI DISTRIBUTED OVER   1 PROCESSORS IS           0 WORDS/PROCESSOR.
 TOTAL MEMORY REQUESTED ON EACH PROCESSOR=     1000000 WORDS.
 TIMLIM=      525600.00 MINUTES, OR     365.0 DAYS.
 PARALL= F  BALTYP=  DLB     KDIAG=    0  COREFL= F
 MXSEQ2=     300 MXSEQ3=     150

          ----------------
          PROPERTIES INPUT
          ----------------

     MOMENTS            FIELD           POTENTIAL          DENSITY
 IEMOM =       1   IEFLD =       0   IEPOT =       0   IEDEN =       0
 WHERE =COMASS     WHERE =NUCLEI     WHERE =NUCLEI     WHERE =NUCLEI  
 OUTPUT=BOTH       OUTPUT=BOTH       OUTPUT=BOTH       OUTPUT=BOTH    
 IEMINT=       0   IEFINT=       0                     IEDINT=       0
                                                       MORB  =       0
          EXTRAPOLATION IN EFFECT
          DIIS IN EFFECT
 ORBITAL PRINTING OPTION: NPREO=     1    49     2     1

     -------------------------------
     INTEGRAL TRANSFORMATION OPTIONS
     -------------------------------
     NWORD  =            0
     CUTOFF = 1.0E-09     MPTRAN =       0
     DIRTRF =       F     AOINTS =DUP     

          ----------------------
          INTEGRAL INPUT OPTIONS
          ----------------------
 NOPK  =       1 NORDER=       0 SCHWRZ=       F

   --- ENCODED Z MATRIX ---
 COORD  TYPE   I   J   K   L   M   N
    1      1    3   1
    2      1    2   1
    3      2    2   1   3

 THE DETERMINANT OF THE G MATRIX IS 10**(    -4)

 THE DETERMINANT OF THE G MATRIX IS 10**(    -4)
 * * * WARNING * * *
 YOUR B MATRIX HAS A SMALL DETERMINANT.
 THIS SUGGESTS YOU MAY HAVE BADLY CHOSEN COORDINATES.

     ------------------------------------------
     THE POINT GROUP IS CNV, NAXIS= 2, ORDER= 4
     ------------------------------------------

 -- VARIATIONAL SPACE WILL BE RESTRICTED TO PURE SPHERICAL HARMONICS ONLY --
 AFTER EXCLUDING CONTAMINANT COMBINATIONS FROM THE CARTESIAN GAUSSIAN BASIS
 SET, THE NUMBER OF SPHERICAL HARMONICS KEPT IN THE VARIATION SPACE IS   46

     DIMENSIONS OF THE SYMMETRY SUBSPACES ARE
 A1  =   19     A2  =    5     B1  =   14     B2  =    8

 ..... DONE SETTING UP THE RUN .....
 STEP CPU TIME =     0.01 TOTAL CPU TIME =        0.0 (    0.0 MIN)
 TOTAL WALL CLOCK TIME=        0.0 SECONDS, CPU UTILIZATION IS  50.00%

          ********************
          1 ELECTRON INTEGRALS
          ********************
 ...... END OF ONE-ELECTRON INTEGRALS ......
 STEP CPU TIME =     0.00 TOTAL CPU TIME =        0.0 (    0.0 MIN)
 TOTAL WALL CLOCK TIME=        0.0 SECONDS, CPU UTILIZATION IS  50.00%

          -------------
          GUESS OPTIONS
          -------------
          GUESS =HUCKEL            NORB  =       0          NORDER=       0
          MIX   =       F          PRTMO =       F          PUNMO =       F
          TOLZ  = 1.0E-08          TOLE  = 1.0E-05
          SYMDEN=       F          PURIFY=       F

 INITIAL GUESS ORBITALS GENERATED BY HUCKEL   ROUTINE.
 HUCKEL GUESS REQUIRES     21583 WORDS.

 STATISTICS FOR GENERATION OF SYMMETRY ORBITAL -Q- MATRIX
 NUMBER OF CARTESIAN ATOMIC ORBITALS=         49
 NUMBER OF SPHERICAL CONTAMINANTS DROPPED=     3
 NUMBER OF LINEARLY DEPENDENT MOS DROPPED=     0
 TOTAL NUMBER OF MOS IN VARIATION SPACE=      46

 SYMMETRIES FOR INITIAL GUESS ORBITALS FOLLOW.   BOTH SET(S).
    16 ORBITALS ARE OCCUPIED (    7 CORE ORBITALS).
     8=?A1      9=?B1     10=?A1     11=B2      12=A1      13=?B1     14=A2  
    15=B1      16=?A1     17=B2      18=?B1     19=?A1     20=A1      21=A1  
    22=A1      23=A1      24=A1      25=A1      26=A1  
 ...... END OF INITIAL ORBITAL SELECTION ......
 STEP CPU TIME =     0.01 TOTAL CPU TIME =        0.0 (    0.0 MIN)
 TOTAL WALL CLOCK TIME=        0.0 SECONDS, CPU UTILIZATION IS  66.67%

                    ----------------------
                    AO INTEGRAL TECHNOLOGY
                    ----------------------
     S,P,L SHELL ROTATED AXIS INTEGRALS, REPROGRAMMED BY
        KAZUYA ISHIMURA (IMS) AND JOSE SIERRA (SYNSTAR).
     S,P,D,L SHELL ROTATED AXIS INTEGRALS PROGRAMMED BY
        KAZUYA ISHIMURA (INSTITUTE FOR MOLECULAR SCIENCE).
     S,P,D,F,G SHELL TO TOTAL QUARTET ANGULAR MOMENTUM SUM 5,
        ERIC PROGRAM BY GRAHAM FLETCHER (ELORET AND NASA ADVANCED
        SUPERCOMPUTING DIVISION, AMES RESEARCH CENTER).
     S,P,D,F,G,L SHELL GENERAL RYS QUADRATURE PROGRAMMED BY
        MICHEL DUPUIS (PACIFIC NORTHWEST NATIONAL LABORATORY).

          --------------------
          2 ELECTRON INTEGRALS
          --------------------

 THE -PK- OPTION IS OFF, THE INTEGRALS ARE NOT IN SUPERMATRIX FORM.
 STORING   15000 INTEGRALS/RECORD ON DISK, USING 12 BYTES/INTEGRAL.
 TWO ELECTRON INTEGRAL EVALUATION REQUIRES   90606 WORDS OF MEMORY.
 II,JST,KST,LST =  1  1  1  1 NREC =         1 INTLOC =    1
 II,JST,KST,LST =  2  1  1  1 NREC =         1 INTLOC =    2
 II,JST,KST,LST =  3  1  1  1 NREC =         1 INTLOC =    7
 II,JST,KST,LST =  4  1  1  1 NREC =         1 INTLOC =   22
 II,JST,KST,LST =  5  1  1  1 NREC =         1 INTLOC =   56
 II,JST,KST,LST =  6  1  1  1 NREC =         1 INTLOC =  125
 II,JST,KST,LST =  7  1  1  1 NREC =         1 INTLOC =  329
 II,JST,KST,LST =  8  1  1  1 NREC =         1 INTLOC =  776
 II,JST,KST,LST =  9  1  1  1 NREC =         1 INTLOC = 2864
 II,JST,KST,LST = 10  1  1  1 NREC =         1 INTLOC = 2864
 II,JST,KST,LST = 11  1  1  1 NREC =         1 INTLOC = 2864
 II,JST,KST,LST = 12  1  1  1 NREC =         1 INTLOC = 2864
 II,JST,KST,LST = 13  1  1  1 NREC =         1 INTLOC = 2864
 II,JST,KST,LST = 14  1  1  1 NREC =         1 INTLOC = 2864
 II,JST,KST,LST = 15  1  1  1 NREC =         1 INTLOC = 2864
 II,JST,KST,LST = 16  1  1  1 NREC =         1 INTLOC = 5061
 II,JST,KST,LST = 17  1  1  1 NREC =         1 INTLOC = 8323
 II,JST,KST,LST = 18  1  1  1 NREC =         1 INTLOC =12777
 II,JST,KST,LST = 19  1  1  1 NREC =         3 INTLOC =  808
 II,JST,KST,LST = 20  1  1  1 NREC =         5 INTLOC = 2097
 TOTAL NUMBER OF NONZERO TWO-ELECTRON INTEGRALS =              179789
         12 INTEGRAL RECORDS WERE STORED ON DISK FILE  8.
  ...... END OF TWO-ELECTRON INTEGRALS .....
 STEP CPU TIME =     0.16 TOTAL CPU TIME =        0.2 (    0.0 MIN)
 TOTAL WALL CLOCK TIME=        0.2 SECONDS, CPU UTILIZATION IS  94.74%

          --------------------------
               R-PBE SCF CALCULATION
          --------------------------

     NUCLEAR ENERGY =        99.6357527339
     MAXIT =   30     NPUNCH=    2
     EXTRAP=T  DAMP=F  SHIFT=F  RSTRCT=F  DIIS=T  DEM=F  SOSCF=F
         DENSITY MATRIX CONVERGENCE THRESHOLD=  1.00E-05
     COARSE -> FINE DFT GRID SWITCH THRESHOLD=  3.00E-04 (SWITCH IN $DFT)
                   HF -> DFT SWITCH THRESHOLD=  5.00E-03 (SWOFF IN $DFT)
     MEMORY REQUIRED FOR RHF ITERS=    183108 WORDS.

 DFT CODE IS SWITCHING FROM THE FINE GRID NRAD= 96,  NLEB=  302
                      TO THE COARSE GRID NRAD0= 24, NLEB0=  110

     EXCHANGE FUNCTIONAL   =PBE       
     CORRELATION FUNCTIONAL=PBE       
     DFT THRESHOLD         =.460E-07
     GRID CHANGE THRESHOLD =.300E-03
 FOR AN EULER-MACLAURIN QUADRATURE USING  96 RADIAL POINTS:
 SMALLEST GAUSSIAN PRIMITIVE EXPONENT=        0.1313100000 OF TYPE -P-
 ON ATOM NUMBER   1 HAS RADIAL NORMALIZATION=  1.000000
  LARGEST GAUSSIAN PRIMITIVE EXPONENT=    55510.0000000000 OF TYPE -S-
 ON ATOM NUMBER   1 HAS RADIAL NORMALIZATION=  0.999999
 DFT IS SWITCHED OFF, PERFORMING PURE SCF UNTIL SWOFF THRESHOLD IS REACHED.

 ITER EX DEM     TOTAL ENERGY        E CHANGE  DENSITY CHANGE    DIIS ERROR
   1  0  0     -546.0060018100  -546.0060018100   0.452854805   1.383103185
          * * *   INITIATING DIIS PROCEDURE   * * *
   2  1  0     -546.6045550411    -0.5985532311   0.475903446   0.378128832
   3  2  0     -546.6446581541    -0.0401031131   0.212906803   0.375028113
   4  3  0     -547.0143546388    -0.3696964846   0.015704944   0.011870544
   5  4  0     -547.0150574020    -0.0007027632   0.004027299   0.005929874
 CONVERGED TO SWOFF, SO DFT CALCULATION IS NOW SWITCHED ON.
          * * *   INITIATING DIIS PROCEDURE   * * *
   6  5  0     -548.1749362824    -1.1598788804   0.303671619   0.095436946
   7  6  0     -548.1492499523     0.0256863301   0.266342006   0.155742092
   8  7  0     -548.1678275925    -0.0185776402   0.082293601   0.152809383
   9  8  0     -548.2138489539    -0.0460213613   0.016649742   0.010646205
  10  9  0     -548.2144155344    -0.0005665805   0.001319086   0.001111330
  11 10  0     -548.2144202369    -0.0000047026   0.000522058   0.000680877
  12 11  0     -548.2144212620    -0.0000010250   0.000059397   0.000068847
 DFT CODE IS SWITCHING BACK TO THE FINE GRID
          * * *   INITIATING DIIS PROCEDURE   * * *
  13 12  0     -548.2072789699     0.0071422921   0.005469354   0.010796543
  14 13  0     -548.2073542066    -0.0000752367   0.013845942   0.006922689
  15 14  0     -548.2071346167     0.0002195899   0.010043760   0.012436486
  16 15  0     -548.2074556634    -0.0003210467   0.000913137   0.000948534
  17 16  0     -548.2074580770    -0.0000024136   0.000080726   0.000034339
  18 17  0     -548.2074580834    -0.0000000064   0.000009151   0.000006404
  19 18  0     -548.2074580836    -0.0000000002   0.000000967   0.000001925

          -----------------
          DENSITY CONVERGED
          -----------------
     TIME TO FORM FOCK OPERATORS=       3.9 SECONDS (       0.2 SEC/ITER)
     TIME TO SOLVE SCF EQUATIONS=       0.0 SECONDS (       0.0 SEC/ITER)

 FINAL R-PBE ENERGY IS     -548.2074580836 AFTER  19 ITERATIONS
 DFT EXCHANGE + CORRELATION ENERGY =       -42.3789429805
 TOTAL ELECTRON NUMBER             =        32.0000452008

          ------------
          EIGENVECTORS
          ------------

                      1          2          3          4          5
                  -88.2185   -18.7918   -18.7918    -7.8430    -5.8632
                     A1         B1         A1         A1         B1  
    1  S  1  S    1.002980   0.000000  -0.000080  -0.274073   0.000000
    2  S  1  S   -0.010267   0.000000  -0.001011   1.039619   0.000000
    3  S  1  S    0.001820   0.000000  -0.001992   0.041138   0.000000
    4  S  1  S   -0.000922   0.000000   0.010054  -0.012597   0.000000
    5  S  1  X    0.000000   0.000090   0.000000   0.000000   0.996758
    6  S  1  Y    0.000000   0.000000   0.000000   0.000000   0.000000
    7  S  1  Z    0.000044   0.000000  -0.000113   0.007631   0.000000
    8  S  1  X    0.000000  -0.001355   0.000000   0.000000   0.009237
    9  S  1  Y    0.000000   0.000000   0.000000   0.000000   0.000000
   10  S  1  Z    0.000086   0.000000   0.001341   0.001147   0.000000
   11  S  1  X    0.000000  -0.003289   0.000000   0.000000  -0.000281
   12  S  1  Y    0.000000   0.000000   0.000000   0.000000   0.000000
   13  S  1  Z   -0.000089   0.000000   0.005010  -0.000983   0.000000
   14  S  1 XX    0.000019   0.000000   0.000539   0.000278   0.000000
   15  S  1 YY   -0.000024   0.000000  -0.001115  -0.000290   0.000000
   16  S  1 ZZ    0.000005   0.000000   0.000575   0.000012   0.000000
   17  S  1 XY    0.000000   0.000000   0.000000   0.000000   0.000000
   18  S  1 XZ    0.000000  -0.001097   0.000000   0.000000   0.000462
   19  S  1 YZ    0.000000   0.000000   0.000000   0.000000   0.000000
   20  O  2  S    0.000005   0.703253   0.703283   0.000008   0.000152
   21  O  2  S    0.000004   0.025545   0.025666  -0.000193   0.000003
   22  O  2  S    0.000063  -0.011158  -0.012961   0.000884  -0.000173
   23  O  2  X   -0.000011   0.000769   0.000492  -0.000221  -0.000141
   24  O  2  Y    0.000000   0.000000   0.000000   0.000000   0.000000
   25  O  2  Z    0.000010  -0.000720  -0.000701   0.000207   0.000167
   26  O  2  X   -0.000044  -0.002259  -0.002432  -0.000402  -0.000107
   27  O  2  Y    0.000000   0.000000   0.000000   0.000000   0.000000
   28  O  2  Z    0.000063   0.002017   0.002391   0.000599   0.000067
   29  O  2 XX   -0.000026  -0.000267  -0.000037  -0.000183  -0.000059
   30  O  2 YY    0.000058   0.000356   0.000137   0.000405   0.000184
   31  O  2 ZZ   -0.000032  -0.000089  -0.000100  -0.000222  -0.000125
   32  O  2 XY    0.000000   0.000000   0.000000   0.000000   0.000000
   33  O  2 XZ    0.000099   0.000327   0.000455   0.000686   0.000305
   34  O  2 YZ    0.000000   0.000000   0.000000   0.000000   0.000000
   35  O  3  S    0.000005  -0.703253   0.703283   0.000008  -0.000152
   36  O  3  S    0.000004  -0.025545   0.025666  -0.000193  -0.000003
   37  O  3  S    0.000063   0.011158  -0.012961   0.000884   0.000173
   38  O  3  X    0.000011   0.000769  -0.000492   0.000221  -0.000141
   39  O  3  Y    0.000000   0.000000   0.000000   0.000000   0.000000
   40  O  3  Z    0.000010   0.000720  -0.000701   0.000207  -0.000167
   41  O  3  X    0.000044  -0.002259   0.002432   0.000402  -0.000107
   42  O  3  Y    0.000000   0.000000   0.000000   0.000000   0.000000
   43  O  3  Z    0.000063  -0.002017   0.002391   0.000599  -0.000067
   44  O  3 XX   -0.000026   0.000267  -0.000037  -0.000183   0.000059
   45  O  3 YY    0.000058  -0.000356   0.000137   0.000405  -0.000184
   46  O  3 ZZ   -0.000032   0.000089  -0.000100  -0.000222   0.000125
   47  O  3 XY    0.000000   0.000000   0.000000   0.000000   0.000000
   48  O  3 XZ   -0.000099   0.000327  -0.000455  -0.000686   0.000305
   49  O  3 YZ    0.000000   0.000000   0.000000   0.000000   0.000000

                      6          7          8          9         10
                   -5.8626    -5.8590    -0.9962    -0.8869    -0.6238
                     B2         A1         A1         B1         A1  
    1  S  1  S    0.000000   0.002093   0.047089   0.000000   0.071428
    2  S  1  S    0.000000  -0.008215  -0.134540   0.000000  -0.202460
    3  S  1  S    0.000000  -0.000484   0.279710   0.000000   0.449942
    4  S  1  S    0.000000  -0.000178   0.153779   0.000000   0.440914
    5  S  1  X    0.000000   0.000000   0.000000   0.094998   0.000000
    6  S  1  Y    0.996824   0.000000   0.000000   0.000000   0.000000
    7  S  1  Z    0.000000   0.996800  -0.068107   0.000000   0.062593
    8  S  1  X    0.000000   0.000000   0.000000  -0.190912   0.000000
    9  S  1  Y    0.009145   0.000000   0.000000   0.000000   0.000000
   10  S  1  Z    0.000000   0.008974   0.132539   0.000000  -0.130663
   11  S  1  X    0.000000   0.000000   0.000000  -0.033200   0.000000
   12  S  1  Y   -0.000259   0.000000   0.000000   0.000000   0.000000
   13  S  1  Z    0.000000  -0.000318   0.005210   0.000000  -0.079922
   14  S  1 XX    0.000000  -0.000234   0.013871   0.000000  -0.002886
   15  S  1 YY    0.000000  -0.000195  -0.029334   0.000000   0.016922
   16  S  1 ZZ    0.000000   0.000429   0.015463   0.000000  -0.014036
   17  S  1 XY    0.000000   0.000000   0.000000   0.000000   0.000000
   18  S  1 XZ    0.000000   0.000000   0.000000  -0.070136   0.000000
   19  S  1 YZ    0.000333   0.000000   0.000000   0.000000   0.000000
   20  O  2  S    0.000000  -0.000161  -0.122372  -0.151416   0.093631
   21  O  2  S    0.000000  -0.000046   0.242712   0.306370  -0.192360
   22  O  2  S    0.000000   0.000366   0.284410   0.377024  -0.297706
   23  O  2  X    0.000000   0.000195   0.080526   0.049097   0.053187
   24  O  2  Y    0.000021   0.000000   0.000000   0.000000   0.000000
   25  O  2  Z    0.000000  -0.000172  -0.072227  -0.074543  -0.087014
   26  O  2  X    0.000000   0.000129   0.032519   0.022655   0.020510
   27  O  2  Y   -0.000046   0.000000   0.000000   0.000000   0.000000
   28  O  2  Z    0.000000  -0.000235  -0.031989  -0.032505  -0.037613
   29  O  2 XX    0.000000   0.000099   0.002406  -0.001677   0.000119
   30  O  2 YY    0.000000  -0.000212  -0.005463  -0.001961  -0.004400
   31  O  2 ZZ    0.000000   0.000113   0.003057   0.003639   0.004282
   32  O  2 XY    0.000022   0.000000   0.000000   0.000000   0.000000
   33  O  2 XZ    0.000000  -0.000383  -0.012692  -0.008695  -0.006185
   34  O  2 YZ   -0.000029   0.000000   0.000000   0.000000   0.000000
   35  O  3  S    0.000000  -0.000161  -0.122372   0.151416   0.093631
   36  O  3  S    0.000000  -0.000046   0.242712  -0.306370  -0.192360
   37  O  3  S    0.000000   0.000366   0.284410  -0.377024  -0.297706
   38  O  3  X    0.000000  -0.000195  -0.080526   0.049097  -0.053187
   39  O  3  Y    0.000021   0.000000   0.000000   0.000000   0.000000
   40  O  3  Z    0.000000  -0.000172  -0.072227   0.074543  -0.087014
   41  O  3  X    0.000000  -0.000129  -0.032519   0.022655  -0.020510
   42  O  3  Y   -0.000046   0.000000   0.000000   0.000000   0.000000
   43  O  3  Z    0.000000  -0.000235  -0.031989   0.032505  -0.037613
   44  O  3 XX    0.000000   0.000099   0.002406   0.001677   0.000119
   45  O  3 YY    0.000000  -0.000212  -0.005463   0.001961  -0.004400
   46  O  3 ZZ    0.000000   0.000113   0.003057  -0.003639   0.004282
   47  O  3 XY   -0.000022   0.000000   0.000000   0.000000   0.000000
   48  O  3 XZ    0.000000   0.000383   0.012692  -0.008695   0.006185
   49  O  3 YZ   -0.000029   0.000000   0.000000   0.000000   0.000000

                     11         12         13         14         15
                   -0.4181    -0.4169    -0.4147    -0.3005    -0.2898
                     B1         A1         B2         A1         A2  
    1  S  1  S    0.000000  -0.005949   0.000000   0.011358   0.000000
    2  S  1  S    0.000000   0.047670   0.000000  -0.050731   0.000000
    3  S  1  S    0.000000   0.003953   0.000000   0.049804   0.000000
    4  S  1  S    0.000000  -0.265628   0.000000   0.255358   0.000000
    5  S  1  X   -0.185556   0.000000   0.000000   0.000000   0.000000
    6  S  1  Y    0.000000   0.000000  -0.211741   0.000000   0.000000
    7  S  1  Z    0.000000  -0.196982   0.000000   0.075731   0.000000
    8  S  1  X    0.440885   0.000000   0.000000   0.000000   0.000000
    9  S  1  Y    0.000000   0.000000   0.498088   0.000000   0.000000
   10  S  1  Z    0.000000   0.464498   0.000000  -0.181204   0.000000
   11  S  1  X    0.158139   0.000000   0.000000   0.000000   0.000000
   12  S  1  Y    0.000000   0.000000   0.294314   0.000000   0.000000
   13  S  1  Z    0.000000   0.175847   0.000000  -0.074437   0.000000
   14  S  1 XX    0.000000  -0.027187   0.000000  -0.109673   0.000000
   15  S  1 YY    0.000000  -0.020031   0.000000   0.030721   0.000000
   16  S  1 ZZ    0.000000   0.047218   0.000000   0.078952   0.000000
   17  S  1 XY    0.000000   0.000000   0.000000   0.000000  -0.094957
   18  S  1 XZ    0.046633   0.000000   0.000000   0.000000   0.000000
   19  S  1 YZ    0.000000   0.000000   0.049227   0.000000   0.000000
   20  O  2  S   -0.060693   0.047359   0.000000  -0.001625   0.000000
   21  O  2  S    0.121239  -0.093988   0.000000   0.001590   0.000000
   22  O  2  S    0.235463  -0.173473   0.000000  -0.005915   0.000000
   23  O  2  X   -0.161324   0.315113   0.000000   0.164579   0.000000
   24  O  2  Y    0.000000   0.000000   0.283408   0.000000   0.475340
   25  O  2  Z    0.308766  -0.070573   0.000000   0.410007   0.000000
   26  O  2  X   -0.099081   0.193052   0.000000   0.122472   0.000000
   27  O  2  Y    0.000000   0.000000   0.170147   0.000000   0.341617
   28  O  2  Z    0.174688  -0.047516   0.000000   0.302851   0.000000
   29  O  2 XX    0.002899   0.013271   0.000000   0.012213   0.000000
   30  O  2 YY    0.007640  -0.006144   0.000000   0.003710   0.000000
   31  O  2 ZZ   -0.010538  -0.007127   0.000000  -0.015923   0.000000
   32  O  2 XY    0.000000   0.000000   0.014087   0.000000   0.010907
   33  O  2 XZ    0.008991  -0.009886   0.000000   0.006977   0.000000
   34  O  2 YZ    0.000000   0.000000  -0.013702   0.000000  -0.014980
   35  O  3  S    0.060693   0.047359   0.000000  -0.001625   0.000000
   36  O  3  S   -0.121239  -0.093988   0.000000   0.001590   0.000000
   37  O  3  S   -0.235463  -0.173473   0.000000  -0.005915   0.000000
   38  O  3  X   -0.161324  -0.315113   0.000000  -0.164579   0.000000
   39  O  3  Y    0.000000   0.000000   0.283408   0.000000  -0.475340
   40  O  3  Z   -0.308766  -0.070573   0.000000   0.410007   0.000000
   41  O  3  X   -0.099081  -0.193052   0.000000  -0.122472   0.000000
   42  O  3  Y    0.000000   0.000000   0.170147   0.000000  -0.341617
   43  O  3  Z   -0.174688  -0.047516   0.000000   0.302851   0.000000
   44  O  3 XX   -0.002899   0.013271   0.000000   0.012213   0.000000
   45  O  3 YY   -0.007640  -0.006144   0.000000   0.003710   0.000000
   46  O  3 ZZ    0.010538  -0.007127   0.000000  -0.015923   0.000000
   47  O  3 XY    0.000000   0.000000  -0.014087   0.000000   0.010907
   48  O  3 XZ    0.008991   0.009886   0.000000  -0.006977   0.000000
   49  O  3 YZ    0.000000   0.000000  -0.013702   0.000000   0.014980

                     16         17         18         19         20
                   -0.2430    -0.2031    -0.0849     0.0036     0.3433
                     B1         B2         B1         A1         A1  
    1  S  1  S    0.000000   0.000000   0.000000   0.032114  -0.014579
    2  S  1  S    0.000000   0.000000   0.000000  -0.124448  -0.088663
    3  S  1  S    0.000000   0.000000   0.000000   0.179328  -0.265111
    4  S  1  S    0.000000   0.000000   0.000000   0.809338   0.611252
    5  S  1  X   -0.014652   0.000000  -0.192194   0.000000   0.000000
    6  S  1  Y    0.000000  -0.200177   0.000000   0.000000   0.000000
    7  S  1  Z    0.000000   0.000000   0.000000  -0.153277   0.290819
    8  S  1  X    0.027050   0.000000   0.485081   0.000000   0.000000
    9  S  1  Y    0.000000   0.501553   0.000000   0.000000   0.000000
   10  S  1  Z    0.000000   0.000000   0.000000   0.390829  -1.082898
   11  S  1  X    0.173318   0.000000   0.753604   0.000000   0.000000
   12  S  1  Y    0.000000   0.425239   0.000000   0.000000   0.000000
   13  S  1  Z    0.000000   0.000000   0.000000   0.963823   1.415313
   14  S  1 XX    0.000000   0.000000   0.000000  -0.064081   0.189713
   15  S  1 YY    0.000000   0.000000   0.000000   0.204276  -0.057506
   16  S  1 ZZ    0.000000   0.000000   0.000000  -0.140195  -0.132207
   17  S  1 XY    0.000000   0.000000   0.000000   0.000000   0.000000
   18  S  1 XZ   -0.084319   0.000000  -0.195345   0.000000   0.000000
   19  S  1 YZ    0.000000  -0.085861   0.000000   0.000000   0.000000
   20  O  2  S   -0.009236   0.000000  -0.031827   0.053585   0.007409
   21  O  2  S    0.019058   0.000000   0.052909  -0.077068   0.066279
   22  O  2  S    0.075221   0.000000   0.300534  -0.546034  -0.492620
   23  O  2  X    0.460950   0.000000   0.019243  -0.263750   0.204666
   24  O  2  Y    0.000000  -0.380054   0.000000   0.000000   0.000000
   25  O  2  Z    0.170863   0.000000  -0.337910   0.179726  -0.129214
   26  O  2  X    0.326687   0.000000   0.020030  -0.363783  -0.160401
   27  O  2  Y    0.000000  -0.318523   0.000000   0.000000   0.000000
   28  O  2  Z    0.111971   0.000000  -0.313227   0.194604   0.017221
   29  O  2 XX    0.013197   0.000000   0.000327  -0.001718  -0.037904
   30  O  2 YY   -0.001061   0.000000   0.001737   0.005925   0.023832
   31  O  2 ZZ   -0.012136   0.000000  -0.002064  -0.004207   0.014072
   32  O  2 XY    0.000000  -0.004411   0.000000   0.000000   0.000000
   33  O  2 XZ   -0.008714   0.000000   0.000013  -0.002644   0.031250
   34  O  2 YZ    0.000000   0.001959   0.000000   0.000000   0.000000
   35  O  3  S    0.009236   0.000000   0.031827   0.053585   0.007409
   36  O  3  S   -0.019058   0.000000  -0.052909  -0.077068   0.066279
   37  O  3  S   -0.075221   0.000000  -0.300534  -0.546034  -0.492620
   38  O  3  X    0.460950   0.000000   0.019243   0.263750  -0.204666
   39  O  3  Y    0.000000  -0.380054   0.000000   0.000000   0.000000
   40  O  3  Z   -0.170863   0.000000   0.337910   0.179726  -0.129214
   41  O  3  X    0.326687   0.000000   0.020030   0.363783   0.160401
   42  O  3  Y    0.000000  -0.318523   0.000000   0.000000   0.000000
   43  O  3  Z   -0.111971   0.000000   0.313227   0.194604   0.017221
   44  O  3 XX   -0.013197   0.000000  -0.000327  -0.001718  -0.037904
   45  O  3 YY    0.001061   0.000000  -0.001737   0.005925   0.023832
   46  O  3 ZZ    0.012136   0.000000   0.002064  -0.004207   0.014072
   47  O  3 XY    0.000000   0.004411   0.000000   0.000000   0.000000
   48  O  3 XZ   -0.008714   0.000000   0.000013   0.002644  -0.031250
   49  O  3 YZ    0.000000   0.001959   0.000000   0.000000   0.000000

                     21         22         23         24         25
                    0.3469     0.3639     0.3967     0.4970     0.5100
                     B2         B1         A1         A2         B2  
    1  S  1  S    0.000000   0.000000  -0.111151   0.000000   0.000000
    2  S  1  S    0.000000   0.000000  -0.404946   0.000000   0.000000
    3  S  1  S    0.000000   0.000000  -1.718914   0.000000   0.000000
    4  S  1  S    0.000000   0.000000   2.184788   0.000000   0.000000
    5  S  1  X    0.000000   0.294433   0.000000   0.000000   0.000000
    6  S  1  Y    0.285524   0.000000   0.000000   0.000000   0.073800
    7  S  1  Z    0.000000   0.000000  -0.052591   0.000000   0.000000
    8  S  1  X    0.000000  -1.112148   0.000000   0.000000   0.000000
    9  S  1  Y   -1.103100   0.000000   0.000000   0.000000  -0.297188
   10  S  1  Z    0.000000   0.000000   0.207411   0.000000   0.000000
   11  S  1  X    0.000000   1.410832   0.000000   0.000000   0.000000
   12  S  1  Y    1.227606   0.000000   0.000000   0.000000   0.289858
   13  S  1  Z    0.000000   0.000000   0.153054   0.000000   0.000000
   14  S  1 XX    0.000000   0.000000  -0.147437   0.000000   0.000000
   15  S  1 YY    0.000000   0.000000   0.291104   0.000000   0.000000
   16  S  1 ZZ    0.000000   0.000000  -0.143667   0.000000   0.000000
   17  S  1 XY    0.000000   0.000000   0.000000   0.921138   0.000000
   18  S  1 XZ    0.000000   0.090209   0.000000   0.000000   0.000000
   19  S  1 YZ   -0.245156   0.000000   0.000000   0.000000   0.859572
   20  O  2  S    0.000000  -0.007820   0.017866   0.000000   0.000000
   21  O  2  S    0.000000  -0.039461  -0.037047   0.000000   0.000000
   22  O  2  S    0.000000   0.394897  -0.341743   0.000000   0.000000
   23  O  2  X    0.000000  -0.203488   0.086737   0.000000   0.000000
   24  O  2  Y   -0.001067   0.000000   0.000000   0.276773  -0.324456
   25  O  2  Z    0.000000   0.100694  -0.080580   0.000000   0.000000
   26  O  2  X    0.000000   0.004138  -0.142504   0.000000   0.000000
   27  O  2  Y   -0.127691   0.000000   0.000000  -0.093824   0.108195
   28  O  2  Z    0.000000  -0.132234   0.124452   0.000000   0.000000
   29  O  2 XX    0.000000  -0.004368  -0.015628   0.000000   0.000000
   30  O  2 YY    0.000000  -0.018651   0.032424   0.000000   0.000000
   31  O  2 ZZ    0.000000   0.023019  -0.016797   0.000000   0.000000
   32  O  2 XY   -0.024600   0.000000   0.000000  -0.020252   0.042049
   33  O  2 XZ    0.000000  -0.032539   0.035940   0.000000   0.000000
   34  O  2 YZ    0.016952   0.000000   0.000000   0.046762  -0.016503
   35  O  3  S    0.000000   0.007820   0.017866   0.000000   0.000000
   36  O  3  S    0.000000   0.039461  -0.037047   0.000000   0.000000
   37  O  3  S    0.000000  -0.394897  -0.341743   0.000000   0.000000
   38  O  3  X    0.000000  -0.203488  -0.086737   0.000000   0.000000
   39  O  3  Y   -0.001067   0.000000   0.000000  -0.276773  -0.324456
   40  O  3  Z    0.000000  -0.100694  -0.080580   0.000000   0.000000
   41  O  3  X    0.000000   0.004138   0.142504   0.000000   0.000000
   42  O  3  Y   -0.127691   0.000000   0.000000   0.093824   0.108195
   43  O  3  Z    0.000000   0.132234   0.124452   0.000000   0.000000
   44  O  3 XX    0.000000   0.004368  -0.015628   0.000000   0.000000
   45  O  3 YY    0.000000   0.018651   0.032424   0.000000   0.000000
   46  O  3 ZZ    0.000000  -0.023019  -0.016797   0.000000   0.000000
   47  O  3 XY    0.024600   0.000000   0.000000  -0.020252  -0.042049
   48  O  3 XZ    0.000000  -0.032539  -0.035940   0.000000   0.000000
   49  O  3 YZ    0.016952   0.000000   0.000000  -0.046762  -0.016503

                     26         27         28         29         30
                    0.5270     0.6459     0.6984     0.7773     0.8240
                     A1         A1         B1         A1         B2  
    1  S  1  S   -0.001815  -0.019025   0.000000  -0.001866   0.000000
    2  S  1  S   -0.001358  -0.178499   0.000000   0.007779   0.000000
    3  S  1  S   -0.023135  -0.424721   0.000000  -0.014972   0.000000
    4  S  1  S   -0.043732   1.551915   0.000000  -0.224879   0.000000
    5  S  1  X    0.000000   0.000000  -0.093523   0.000000   0.000000
    6  S  1  Y    0.000000   0.000000   0.000000   0.000000  -0.024359
    7  S  1  Z   -0.066303  -0.083717   0.000000   0.001981   0.000000
    8  S  1  X    0.000000   0.000000   0.467614   0.000000   0.000000
    9  S  1  Y    0.000000   0.000000   0.000000   0.000000   0.114938
   10  S  1  Z    0.255114   0.378137   0.000000  -0.033583   0.000000
   11  S  1  X    0.000000   0.000000   0.320654   0.000000   0.000000
   12  S  1  Y    0.000000   0.000000   0.000000   0.000000  -0.604035
   13  S  1  Z   -0.308782   0.506201   0.000000  -0.402835   0.000000
   14  S  1 XX    0.772095   0.419169   0.000000   0.430764   0.000000
   15  S  1 YY   -0.087829  -0.860807   0.000000   0.025153   0.000000
   16  S  1 ZZ   -0.684267   0.441638   0.000000  -0.455918   0.000000
   17  S  1 XY    0.000000   0.000000   0.000000   0.000000   0.000000
   18  S  1 XZ    0.000000   0.000000   0.791820   0.000000   0.000000
   19  S  1 YZ    0.000000   0.000000   0.000000   0.000000  -0.472140
   20  O  2  S   -0.001155   0.063352  -0.064002  -0.001787   0.000000
   21  O  2  S   -0.005266  -0.237902   0.235944  -0.041644   0.000000
   22  O  2  S    0.078408  -0.443126   0.284153   0.171028   0.000000
   23  O  2  X    0.197026   0.069280  -0.202015  -0.463163   0.000000
   24  O  2  Y    0.000000   0.000000   0.000000   0.000000  -0.564727
   25  O  2  Z    0.307412  -0.164269   0.153997  -0.316544   0.000000
   26  O  2  X   -0.029401  -0.533545   0.700572   0.634190   0.000000
   27  O  2  Y    0.000000   0.000000   0.000000   0.000000   0.851313
   28  O  2  Z   -0.088636   0.584570  -0.627927   0.376747   0.000000
   29  O  2 XX   -0.049917   0.009304  -0.008904  -0.032004   0.000000
   30  O  2 YY   -0.006951  -0.012841   0.011976  -0.013024   0.000000
   31  O  2 ZZ    0.056868   0.003537  -0.003073   0.045027   0.000000
   32  O  2 XY    0.000000   0.000000   0.000000   0.000000  -0.033044
   33  O  2 XZ   -0.007352   0.008629   0.022262   0.018913   0.000000
   34  O  2 YZ    0.000000   0.000000   0.000000   0.000000   0.039881
   35  O  3  S   -0.001155   0.063352   0.064002  -0.001787   0.000000
   36  O  3  S   -0.005266  -0.237902  -0.235944  -0.041644   0.000000
   37  O  3  S    0.078408  -0.443126  -0.284153   0.171028   0.000000
   38  O  3  X   -0.197026  -0.069280  -0.202015   0.463163   0.000000
   39  O  3  Y    0.000000   0.000000   0.000000   0.000000  -0.564727
   40  O  3  Z    0.307412  -0.164269  -0.153997  -0.316544   0.000000
   41  O  3  X    0.029401   0.533545   0.700572  -0.634190   0.000000
   42  O  3  Y    0.000000   0.000000   0.000000   0.000000   0.851313
   43  O  3  Z   -0.088636   0.584570   0.627927   0.376747   0.000000
   44  O  3 XX   -0.049917   0.009304   0.008904  -0.032004   0.000000
   45  O  3 YY   -0.006951  -0.012841  -0.011976  -0.013024   0.000000
   46  O  3 ZZ    0.056868   0.003537   0.003073   0.045027   0.000000
   47  O  3 XY    0.000000   0.000000   0.000000   0.000000   0.033044
   48  O  3 XZ    0.007352  -0.008629   0.022262  -0.018913   0.000000
   49  O  3 YZ    0.000000   0.000000   0.000000   0.000000   0.039881

                     31         32         33         34         35
                    0.8287     0.8687     0.8974     0.9643     1.5846
                     A2         A1         B1         B1         B1  
    1  S  1  S    0.000000   0.037079   0.000000   0.000000   0.000000
    2  S  1  S    0.000000   0.215224   0.000000   0.000000   0.000000
    3  S  1  S    0.000000   0.696623   0.000000   0.000000   0.000000
    4  S  1  S    0.000000  -0.397646   0.000000   0.000000   0.000000
    5  S  1  X    0.000000   0.000000  -0.005713   0.012971  -0.028491
    6  S  1  Y    0.000000   0.000000   0.000000   0.000000   0.000000
    7  S  1  Z    0.000000  -0.027922   0.000000   0.000000   0.000000
    8  S  1  X    0.000000   0.000000  -0.064330  -0.184061   0.217360
    9  S  1  Y    0.000000   0.000000   0.000000   0.000000   0.000000
   10  S  1  Z    0.000000   0.299639   0.000000   0.000000   0.000000
   11  S  1  X    0.000000   0.000000  -0.272616   0.733008   0.661772
   12  S  1  Y    0.000000   0.000000   0.000000   0.000000   0.000000
   13  S  1  Z    0.000000  -0.393537   0.000000   0.000000   0.000000
   14  S  1 XX    0.000000  -0.120364   0.000000   0.000000   0.000000
   15  S  1 YY    0.000000   0.484464   0.000000   0.000000   0.000000
   16  S  1 ZZ    0.000000  -0.364100   0.000000   0.000000   0.000000
   17  S  1 XY    0.406600   0.000000   0.000000   0.000000   0.000000
   18  S  1 XZ    0.000000   0.000000   0.413888   0.699799   0.301540
   19  S  1 YZ    0.000000   0.000000   0.000000   0.000000   0.000000
   20  O  2  S    0.000000  -0.011688  -0.010799  -0.016921   0.011232
   21  O  2  S    0.000000   0.087108   0.069886  -0.032790  -1.142928
   22  O  2  S    0.000000   0.120462  -0.041314   0.357257   1.570222
   23  O  2  X    0.000000   0.374754  -0.098831   0.577357  -0.083420
   24  O  2  Y   -0.590934   0.000000   0.000000   0.000000   0.000000
   25  O  2  Z    0.000000  -0.435776  -0.627492  -0.060948   0.027436
   26  O  2  X    0.000000  -0.331352   0.289552  -0.666762   0.413410
   27  O  2  Y    0.803209   0.000000   0.000000   0.000000   0.000000
   28  O  2  Z    0.000000   0.562365   0.757254  -0.267297  -0.348871
   29  O  2 XX    0.000000  -0.022050  -0.026830   0.059823  -0.148232
   30  O  2 YY    0.000000  -0.016631   0.005856  -0.027994   0.180743
   31  O  2 ZZ    0.000000   0.038682   0.020974  -0.031829  -0.032510
   32  O  2 XY   -0.040253   0.000000   0.000000   0.000000   0.000000
   33  O  2 XZ    0.000000  -0.059924  -0.011692   0.021594   0.139040
   34  O  2 YZ    0.032462   0.000000   0.000000   0.000000   0.000000
   35  O  3  S    0.000000  -0.011688   0.010799   0.016921  -0.011232
   36  O  3  S    0.000000   0.087108  -0.069886   0.032790   1.142928
   37  O  3  S    0.000000   0.120462   0.041314  -0.357257  -1.570222
   38  O  3  X    0.000000  -0.374754  -0.098831   0.577357  -0.083420
   39  O  3  Y    0.590934   0.000000   0.000000   0.000000   0.000000
   40  O  3  Z    0.000000  -0.435776   0.627492   0.060948  -0.027436
   41  O  3  X    0.000000   0.331352   0.289552  -0.666762   0.413410
   42  O  3  Y   -0.803209   0.000000   0.000000   0.000000   0.000000
   43  O  3  Z    0.000000   0.562365  -0.757254   0.267297   0.348871
   44  O  3 XX    0.000000  -0.022050   0.026830  -0.059823   0.148232
   45  O  3 YY    0.000000  -0.016631  -0.005856   0.027994  -0.180743
   46  O  3 ZZ    0.000000   0.038682  -0.020974   0.031829   0.032510
   47  O  3 XY   -0.040253   0.000000   0.000000   0.000000   0.000000
   48  O  3 XZ    0.000000   0.059924  -0.011692   0.021594   0.139040
   49  O  3 YZ   -0.032462   0.000000   0.000000   0.000000   0.000000

                     36         37         38         39         40
                    1.6326     2.0921     2.0927     2.1041     2.1063
                     A1         B2         B1         A1         A2  
    1  S  1  S   -0.030607   0.000000   0.000000   0.006868   0.000000
    2  S  1  S   -0.310092   0.000000   0.000000   0.048050   0.000000
    3  S  1  S   -0.709077   0.000000   0.000000   0.134001   0.000000
    4  S  1  S    2.275106   0.000000   0.000000  -0.362407   0.000000
    5  S  1  X    0.000000   0.000000  -0.013584   0.000000   0.000000
    6  S  1  Y    0.000000  -0.004724   0.000000   0.000000   0.000000
    7  S  1  Z   -0.040979   0.000000   0.000000  -0.007303   0.000000
    8  S  1  X    0.000000   0.000000   0.032325   0.000000   0.000000
    9  S  1  Y    0.000000   0.011250   0.000000   0.000000   0.000000
   10  S  1  Z    0.232676   0.000000   0.000000   0.013393   0.000000
   11  S  1  X    0.000000   0.000000   0.094761   0.000000   0.000000
   12  S  1  Y    0.000000   0.038710   0.000000   0.000000   0.000000
   13  S  1  Z    1.095678   0.000000   0.000000  -0.200588   0.000000
   14  S  1 XX    0.168907   0.000000   0.000000  -0.008225   0.000000
   15  S  1 YY   -0.396841   0.000000   0.000000  -0.033523   0.000000
   16  S  1 ZZ    0.227934   0.000000   0.000000   0.041748   0.000000
   17  S  1 XY    0.000000   0.000000   0.000000   0.000000   0.008546
   18  S  1 XZ    0.000000   0.000000  -0.023570   0.000000   0.000000
   19  S  1 YZ    0.000000  -0.010024   0.000000   0.000000   0.000000
   20  O  2  S    0.001862   0.000000  -0.000714   0.000578   0.000000
   21  O  2  S    1.192610   0.000000  -0.038030  -0.177043   0.000000
   22  O  2  S   -2.062791   0.000000   0.072479   0.303042   0.000000
   23  O  2  X   -0.044445   0.000000   0.020654  -0.030958   0.000000
   24  O  2  Y    0.000000   0.024715   0.000000   0.000000  -0.027487
   25  O  2  Z   -0.017690   0.000000   0.014047   0.002859   0.000000
   26  O  2  X   -0.433303   0.000000  -0.022368   0.102651   0.000000
   27  O  2  Y    0.000000  -0.042149   0.000000   0.000000   0.043146
   28  O  2  Z    0.424671   0.000000  -0.034327  -0.045054   0.000000
   29  O  2 XX   -0.021898   0.000000  -0.141503  -0.405095   0.000000
   30  O  2 YY   -0.007434   0.000000  -0.463056   0.637999   0.000000
   31  O  2 ZZ    0.029332   0.000000   0.604559  -0.232904   0.000000
   32  O  2 XY    0.000000   0.430953   0.000000   0.000000   0.590313
   33  O  2 XZ   -0.200598   0.000000   0.320127  -0.277886   0.000000
   34  O  2 YZ    0.000000   0.560519   0.000000   0.000000   0.390214
   35  O  3  S    0.001862   0.000000   0.000714   0.000578   0.000000
   36  O  3  S    1.192610   0.000000   0.038030  -0.177043   0.000000
   37  O  3  S   -2.062791   0.000000  -0.072479   0.303042   0.000000
   38  O  3  X    0.044445   0.000000   0.020654   0.030958   0.000000
   39  O  3  Y    0.000000   0.024715   0.000000   0.000000   0.027487
   40  O  3  Z   -0.017690   0.000000  -0.014047   0.002859   0.000000
   41  O  3  X    0.433303   0.000000  -0.022368  -0.102651   0.000000
   42  O  3  Y    0.000000  -0.042149   0.000000   0.000000  -0.043146
   43  O  3  Z    0.424671   0.000000   0.034327  -0.045054   0.000000
   44  O  3 XX   -0.021898   0.000000   0.141503  -0.405095   0.000000
   45  O  3 YY   -0.007434   0.000000   0.463056   0.637999   0.000000
   46  O  3 ZZ    0.029332   0.000000  -0.604559  -0.232904   0.000000
   47  O  3 XY    0.000000  -0.430953   0.000000   0.000000   0.590313
   48  O  3 XZ    0.200598   0.000000   0.320127   0.277886   0.000000
   49  O  3 YZ    0.000000   0.560519   0.000000   0.000000  -0.390214

                     41         42         43         44         45
                    2.1692     2.2174     2.2260     2.2824     2.6124
                     A2         B1         B2         A1         A1  
    1  S  1  S    0.000000   0.000000   0.000000  -0.004802   0.026901
    2  S  1  S    0.000000   0.000000   0.000000  -0.017835  -0.091049
    3  S  1  S    0.000000   0.000000   0.000000  -0.078655   0.210765
    4  S  1  S    0.000000   0.000000   0.000000   0.010576   1.088975
    5  S  1  X    0.000000   0.018975   0.000000   0.000000   0.000000
    6  S  1  Y    0.000000   0.000000   0.039992   0.000000   0.000000
    7  S  1  Z    0.000000   0.000000   0.000000  -0.017683  -0.149503
    8  S  1  X    0.000000  -0.011800   0.000000   0.000000   0.000000
    9  S  1  Y    0.000000   0.000000  -0.107962   0.000000   0.000000
   10  S  1  Z    0.000000   0.000000   0.000000   0.013687   0.693922
   11  S  1  X    0.000000  -0.098737   0.000000   0.000000   0.000000
   12  S  1  Y    0.000000   0.000000  -0.159735   0.000000   0.000000
   13  S  1  Z    0.000000   0.000000   0.000000   0.127317   0.389868
   14  S  1 XX    0.000000   0.000000   0.000000  -0.367548   0.173576
   15  S  1 YY    0.000000   0.000000   0.000000   0.008328  -0.404752
   16  S  1 ZZ    0.000000   0.000000   0.000000   0.359220   0.231176
   17  S  1 XY   -0.304520   0.000000   0.000000   0.000000   0.000000
   18  S  1 XZ    0.000000  -0.037989   0.000000   0.000000   0.000000
   19  S  1 YZ    0.000000   0.000000  -0.319704   0.000000   0.000000
   20  O  2  S    0.000000   0.003167   0.000000   0.002656   0.019699
   21  O  2  S    0.000000  -0.180795   0.000000  -0.063094   0.551528
   22  O  2  S    0.000000   0.184170   0.000000   0.031529  -1.083755
   23  O  2  X    0.000000  -0.130891   0.000000  -0.019664   0.027250
   24  O  2  Y    0.048541   0.000000  -0.047110   0.000000   0.000000
   25  O  2  Z    0.000000  -0.031588   0.000000   0.046027  -0.036272
   26  O  2  X    0.000000   0.251051   0.000000  -0.021358  -0.438056
   27  O  2  Y   -0.099110   0.000000   0.135592   0.000000   0.000000
   28  O  2  Z    0.000000   0.074883   0.000000  -0.119461   0.422205
   29  O  2 XX    0.000000   0.660898   0.000000  -0.568829  -0.212318
   30  O  2 YY    0.000000  -0.338538   0.000000  -0.111008   0.328105
   31  O  2 ZZ    0.000000  -0.322360   0.000000   0.679837  -0.115787
   32  O  2 XY   -0.397579   0.000000   0.573453   0.000000   0.000000
   33  O  2 XZ    0.000000   0.257082   0.000000   0.006032   0.686387
   34  O  2 YZ    0.597873   0.000000  -0.444577   0.000000   0.000000
   35  O  3  S    0.000000  -0.003167   0.000000   0.002656   0.019699
   36  O  3  S    0.000000   0.180795   0.000000  -0.063094   0.551528
   37  O  3  S    0.000000  -0.184170   0.000000   0.031529  -1.083755
   38  O  3  X    0.000000  -0.130891   0.000000   0.019664  -0.027250
   39  O  3  Y   -0.048541   0.000000  -0.047110   0.000000   0.000000
   40  O  3  Z    0.000000   0.031588   0.000000   0.046027  -0.036272
   41  O  3  X    0.000000   0.251051   0.000000   0.021358   0.438056
   42  O  3  Y    0.099110   0.000000   0.135592   0.000000   0.000000
   43  O  3  Z    0.000000  -0.074883   0.000000  -0.119461   0.422205
   44  O  3 XX    0.000000  -0.660898   0.000000  -0.568829  -0.212318
   45  O  3 YY    0.000000   0.338538   0.000000  -0.111008   0.328105
   46  O  3 ZZ    0.000000   0.322360   0.000000   0.679837  -0.115787
   47  O  3 XY   -0.397579   0.000000  -0.573453   0.000000   0.000000
   48  O  3 XZ    0.000000   0.257082   0.000000  -0.006032  -0.686387
   49  O  3 YZ   -0.597873   0.000000  -0.444577   0.000000   0.000000

                     46
                    2.7182
                     B1  
    1  S  1  S    0.000000
    2  S  1  S    0.000000
    3  S  1  S    0.000000
    4  S  1  S    0.000000
    5  S  1  X   -0.159853
    6  S  1  Y    0.000000
    7  S  1  Z    0.000000
    8  S  1  X    0.752424
    9  S  1  Y    0.000000
   10  S  1  Z    0.000000
   11  S  1  X    0.358542
   12  S  1  Y    0.000000
   13  S  1  Z    0.000000
   14  S  1 XX    0.000000
   15  S  1 YY    0.000000
   16  S  1 ZZ    0.000000
   17  S  1 XY    0.000000
   18  S  1 XZ    0.730518
   19  S  1 YZ    0.000000
   20  O  2  S   -0.025418
   21  O  2  S   -0.596199
   22  O  2  S    1.105012
   23  O  2  X   -0.030926
   24  O  2  Y    0.000000
   25  O  2  Z    0.011315
   26  O  2  X    0.488364
   27  O  2  Y    0.000000
   28  O  2  Z   -0.469914
   29  O  2 XX    0.204523
   30  O  2 YY   -0.429916
   31  O  2 ZZ    0.225393
   32  O  2 XY    0.000000
   33  O  2 XZ   -0.660110
   34  O  2 YZ    0.000000
   35  O  3  S    0.025418
   36  O  3  S    0.596199
   37  O  3  S   -1.105012
   38  O  3  X   -0.030926
   39  O  3  Y    0.000000
   40  O  3  Z   -0.011315
   41  O  3  X    0.488364
   42  O  3  Y    0.000000
   43  O  3  Z    0.469914
   44  O  3 XX   -0.204523
   45  O  3 YY    0.429916
   46  O  3 ZZ   -0.225393
   47  O  3 XY    0.000000
   48  O  3 XZ   -0.660110
   49  O  3 YZ    0.000000
 ...... END OF RHF CALCULATION ......
 STEP CPU TIME =     3.92 TOTAL CPU TIME =        4.1 (    0.1 MIN)
 TOTAL WALL CLOCK TIME=        4.1 SECONDS, CPU UTILIZATION IS  99.76%

     ---------------------------------------------------------------------
     PROPERTIES FOR THE PBE      DFT FUNCTIONAL (RHF  TYPE) DENSITY MATRIX
     ---------------------------------------------------------------------

          -----------------
          ENERGY COMPONENTS
          -----------------

         WAVEFUNCTION NORMALIZATION =       1.0000000000

                ONE ELECTRON ENERGY =    -953.9475865059
                TWO ELECTRON ENERGY =     306.1043756884
           NUCLEAR REPULSION ENERGY =      99.6357527339
                                      ------------------
                       TOTAL ENERGY =    -548.2074580836

 ELECTRON-ELECTRON POTENTIAL ENERGY =     306.1043756884
  NUCLEUS-ELECTRON POTENTIAL ENERGY =   -1501.2418738798
   NUCLEUS-NUCLEUS POTENTIAL ENERGY =      99.6357527339
                                      ------------------
             TOTAL POTENTIAL ENERGY =   -1095.5017454575
               TOTAL KINETIC ENERGY =     547.2942873739
                 VIRIAL RATIO (V/T) =       2.0016685186

          ---------------------------------------
          MULLIKEN AND LOWDIN POPULATION ANALYSES
          ---------------------------------------

     ATOMIC MULLIKEN POPULATION IN EACH MOLECULAR ORBITAL

                      1          2          3          4          5

                  2.000000   2.000000   2.000000   2.000000   2.000000

    1             2.000005   0.000589   0.001605   2.000344   1.999931
    2            -0.000002   0.999705   0.999198  -0.000172   0.000034
    3            -0.000002   0.999705   0.999198  -0.000172   0.000034

                      6          7          8          9         10

                  2.000000   2.000000   2.000000   2.000000   2.000000

    1             2.000004   1.999887   0.649221   0.253996   1.270587
    2            -0.000002   0.000057   0.675389   0.873002   0.364707
    3            -0.000002   0.000057   0.675389   0.873002   0.364707

                     11         12         13         14         15

                  2.000000   2.000000   2.000000   2.000000   2.000000

    1             0.608145   0.829325   1.155108   0.226732   0.051297
    2             0.695927   0.585337   0.422446   0.886634   0.974351
    3             0.695927   0.585337   0.422446   0.886634   0.974351

                     16

                  2.000000

    1             0.140040
    2             0.929980
    3             0.929980

               ----- POPULATIONS IN EACH AO -----
                             MULLIKEN      LOWDIN
              1  S  1  S      2.00023     1.99589
              2  S  1  S      2.01022     1.96955
              3  S  1  S      0.98832     0.61097
              4  S  1  S      0.83951     0.54440
              5  S  1  X      1.99630     1.95411
              6  S  1  Y      1.99618     1.95606
              7  S  1  Z      1.99692     1.95983
              8  S  1  X      0.66958     0.61719
              9  S  1  Y      0.69278     0.65825
             10  S  1  Z      0.80583     0.76470
             11  S  1  X      0.23731     0.32995
             12  S  1  Y      0.45193     0.49811
             13  S  1  Z      0.23443     0.39606
             14  S  1 XX      0.05424     0.25379
             15  S  1 YY      0.04801     0.23977
             16  S  1 ZZ      0.05130     0.25620
             17  S  1 XY      0.09951     0.06031
             18  S  1 XZ      0.01422     0.12780
             19  S  1 YZ      0.00000     0.01357
             20  O  2  S      1.99803     1.98089
             21  O  2  S      0.84237     0.66089
             22  O  2  S      1.08974     0.58345
             23  O  2  X      1.03813     1.00641
             24  O  2  Y      0.83896     0.80797
             25  O  2  Z      0.89167     0.85677
             26  O  2  X      0.59082     0.64245
             27  O  2  Y      0.55323     0.59279
             28  O  2  Z      0.54786     0.62879
             29  O  2 XX      0.00330     0.20401
             30  O  2 YY      0.00200     0.21003
             31  O  2 ZZ      0.00214     0.20699
             32  O  2 XY      0.00587     0.00297
             33  O  2 XZ      0.00247     0.00922
             34  O  2 YZ      0.00000     0.00312
             35  O  3  S      1.99803     1.98089
             36  O  3  S      0.84237     0.66089
             37  O  3  S      1.08974     0.58345
             38  O  3  X      1.03813     1.00641
             39  O  3  Y      0.83896     0.80797
             40  O  3  Z      0.89167     0.85677
             41  O  3  X      0.59082     0.64245
             42  O  3  Y      0.55323     0.59279
             43  O  3  Z      0.54786     0.62879
             44  O  3 XX      0.00330     0.20401
             45  O  3 YY      0.00200     0.21003
             46  O  3 ZZ      0.00214     0.20699
             47  O  3 XY      0.00587     0.00297
             48  O  3 XZ      0.00247     0.00922
             49  O  3 YZ      0.00000     0.00312

          ----- MULLIKEN ATOMIC OVERLAP POPULATIONS -----
          (OFF-DIAGONAL ELEMENTS NEED TO BE MULTIPLIED BY 2)

             1           2           3

    1   14.5700266
    2    0.3083940   8.2213422
    3    0.3083940  -0.1231435   8.2213422

          TOTAL MULLIKEN AND LOWDIN ATOMIC POPULATIONS
       ATOM         MULL.POP.    CHARGE          LOW.POP.     CHARGE
    1 S            15.186815    0.813185        15.206501    0.793499
    2 O             8.406593   -0.406593         8.396749   -0.396749
    3 O             8.406593   -0.406593         8.396749   -0.396749

          MULLIKEN SPHERICAL HARMONIC POPULATIONS
       ATOM           S       P       D      F      G      H      I    TOTAL
    1 S             5.84    9.08    0.27   0.00   0.00   0.00   0.00   15.19
    2 O             3.93    4.46    0.02   0.00   0.00   0.00   0.00    8.41
    3 O             3.93    4.46    0.02   0.00   0.00   0.00   0.00    8.41

          -------------------------------
          BOND ORDER AND VALENCE ANALYSIS     BOND ORDER THRESHOLD=0.050
          -------------------------------

                   BOND                       BOND                       BOND
  ATOM PAIR DIST  ORDER      ATOM PAIR DIST  ORDER      ATOM PAIR DIST  ORDER
    1   2  1.600  1.686        1   3  1.600  1.686        2   3  2.263  0.371

                       TOTAL       BONDED        FREE
      ATOM            VALENCE     VALENCE     VALENCE
    1 S                 3.372       3.372       0.000
    2 O                 2.057       2.057       0.000
    3 O                 2.057       2.057       0.000

          ---------------------
          ELECTROSTATIC MOMENTS
          ---------------------

 POINT   1           X           Y           Z (BOHR)    CHARGE
                 0.000000    0.000000    0.000000        0.00 (A.U.)
         DX          DY          DZ         /D/  (DEBYE)
     0.000000    0.000000   -3.224117    3.224117
 ...... END OF PROPERTY EVALUATION ......
 STEP CPU TIME =     0.01 TOTAL CPU TIME =        4.1 (    0.1 MIN)
 TOTAL WALL CLOCK TIME=        4.1 SECONDS, CPU UTILIZATION IS  99.76%
               580000  WORDS OF DYNAMIC MEMORY USED
 EXECUTION OF GAMESS TERMINATED NORMALLY Thu Feb 26 00:17:45 2015
 DDI: 263624 bytes (0.3 MB / 0 MWords) used by master data server.

 ----------------------------------------
 CPU timing information for all processes
 ========================================
 0: 4.94 + 0.27 = 4.122
 ----------------------------------------
 ddikick.x: exited gracefully.
----- accounting info -----
Files used on the master node dftfe.crc.nd.edu were:
-rw-r--r-- 1 pmehta1 campus   37475 Feb 26 00:17 /tmp/gamess.dat
-rw-r--r-- 1 pmehta1 campus     141 Feb 26 00:17 /tmp/gamess.F05
-rw-r--r-- 1 pmehta1 campus 2160288 Feb 26 00:17 /tmp/gamess.F08
-rw-r--r-- 1 pmehta1 campus 1220440 Feb 26 00:17 /tmp/gamess.F10
Thu Feb 26 00:17:48 EST 2015
0.235u 0.186s 0:07.55 5.4%	0+0k 0+112io 0pf+0w
