----- GAMESS execution script 'rungms' -----
This job is running on host dftfe.crc.nd.edu
under operating system Linux at Thu Feb 26 00:17:56 EST 2015
Available scratch disk space (Kbyte units) at beginning of the job is
Filesystem     1K-blocks     Used Available Use% Mounted on
/dev/sda2      147771864 22814412 117451020  17% /
GAMESS temporary binary files will be written to /tmp
GAMESS supplementary output files will be written to /tmp
Copying input file gamess.inp to your run's scratch directory...

 Distributed Data Interface kickoff program.
 Initiating 1 compute processes on 1 nodes to run the following command:
 /opt/crc/gamess/2012R1/gamess/gamess.00.x gamess 

          ******************************************************
          *         GAMESS VERSION =  1 MAY 2012 (R1)          *
          *             FROM IOWA STATE UNIVERSITY             *
          * M.W.SCHMIDT, K.K.BALDRIDGE, J.A.BOATZ, S.T.ELBERT, *
          *   M.S.GORDON, J.H.JENSEN, S.KOSEKI, N.MATSUNAGA,   *
          *          K.A.NGUYEN, S.J.SU, T.L.WINDUS,           *
          *       TOGETHER WITH M.DUPUIS, J.A.MONTGOMERY       *
          *         J.COMPUT.CHEM.  14, 1347-1363(1993)        *
          **************** 64 BIT LINUX VERSION ****************

  SINCE 1993, STUDENTS AND POSTDOCS WORKING AT IOWA STATE UNIVERSITY
  AND ALSO IN THEIR VARIOUS JOBS AFTER LEAVING ISU HAVE MADE IMPORTANT
  CONTRIBUTIONS TO THE CODE:
     IVANA ADAMOVIC, CHRISTINE AIKENS, YURI ALEXEEV, POOJA ARORA,
     ANDREY ASADCHEV, ROB BELL, PRADIPTA BANDYOPADHYAY, JONATHAN BENTZ,
     BRETT BODE, GALINA CHABAN, WEI CHEN, CHEOL HO CHOI, PAUL DAY,
     ALBERT DEFUSCO, TIM DUDLEY, DMITRI FEDOROV, GRAHAM FLETCHER,
     MARK FREITAG, KURT GLAESEMANN, DAN KEMP, GRANT MERRILL,
     NORIYUKI MINEZAWA, JONATHAN MULLIN, TAKESHI NAGATA,
     SEAN NEDD, HEATHER NETZLOFF, BOSILJKA NJEGIC, RYAN OLSON, MIKE PAK,
     JIM SHOEMAKER, LYUDMILA SLIPCHENKO, SAROM SOK, JIE SONG,
     TETSUYA TAKETSUGU, SIMON WEBB, SOOHAENG YOO, FEDERICO ZAHARIEV

  ADDITIONAL CODE HAS BEEN PROVIDED BY COLLABORATORS IN OTHER GROUPS:
     IOWA STATE UNIVERSITY:
          JOE IVANIC, LAIMUTIS BYTAUTAS, KLAUS RUEDENBERG
     UNIVERSITY OF TOKYO: KIMIHIKO HIRAO, TAKAHITO NAKAJIMA,
          TAKAO TSUNEDA, MUNEAKI KAMIYA, SUSUMU YANAGISAWA,
          KIYOSHI YAGI, MAHITO CHIBA, SEIKEN TOKURA, NAOAKI KAWAKAMI
     UNIVERSITY OF AARHUS: FRANK JENSEN
     UNIVERSITY OF IOWA: VISVALDAS KAIRYS, HUI LI
     NATIONAL INST. OF STANDARDS AND TECHNOLOGY: WALT STEVENS, DAVID GARMER
     UNIVERSITY OF PISA: BENEDETTA MENNUCCI, JACOPO TOMASI
     UNIVERSITY OF MEMPHIS: HENRY KURTZ, PRAKASHAN KORAMBATH
     UNIVERSITY OF ALBERTA: TOBY ZENG, MARIUSZ KLOBUKOWSKI
     UNIVERSITY OF NEW ENGLAND: MARK SPACKMAN
     MIE UNIVERSITY: HIROAKI UMEDA
     MICHIGAN STATE UNIVERSITY:
          KAROL KOWALSKI, MARTA WLOCH, JEFFREY GOUR, JESSE LUTZ, PIOTR PIECUCH
     UNIVERSITY OF SILESIA: MONIKA MUSIAL, STANISLAW KUCHARSKI
     FACULTES UNIVERSITAIRES NOTRE-DAME DE LA PAIX:
          OLIVIER QUINET, BENOIT CHAMPAGNE
     UNIVERSITY OF CALIFORNIA - SANTA BARBARA: BERNARD KIRTMAN
     INSTITUTE FOR MOLECULAR SCIENCE:
          KAZUYA ISHIMURA, MICHIO KATOUDA, AND SHIGERU NAGASE
     UNIVERSITY OF NOTRE DAME: DAN CHIPMAN
     KYUSHU UNIVERSITY:
          HARUYUKI NAKANO,
          FENG LONG GU, JACEK KORCHOWIEC, MARCIN MAKOWSKI, AND YURIKO AOKI,
          HIROTOSHI MORI AND EISAKU MIYOSHI
     PENNSYLVANIA STATE UNIVERSITY:
          TZVETELIN IORDANOV, CHET SWALINA, JONATHAN SKONE,
          SHARON HAMMES-SCHIFFER
     WASEDA UNIVERSITY:
          MASATO KOBAYASHI, TOMOKO AKAMA, TSUGUKI TOUMA,
          TAKESHI YOSHIKAWA, YASUHIRO IKABATA, HIROMI NAKAI
     UNIVERSITY OF NEBRASKA:
          PEIFENG SU, DEJUN SI, NANDUN THELLAMUREGE, YALI WANG, HUI LI
     UNIVERSITY OF ZURICH:
          ROBERTO PEVERATI, KIM BALDRIDGE
     N. COPERNICUS UNIVERSITY AND JACKSON STATE UNIVERSITY:
          MARIA BARYSZ

 EXECUTION OF GAMESS BEGUN Thu Feb 26 00:17:56 2015

            ECHO OF THE FIRST FEW INPUT CARDS -
 INPUT CARD> $BASIS GBASIS=PC1 $END                                                         
 INPUT CARD> $CONTRL COORD=ZMT ISPHER=1 RUNTYP=ENERGY DFTTYP=PBE $END                       
 INPUT CARD>                                                                                
 INPUT CARD> $DATA                                                                          
 INPUT CARD>Title                                                                           
 INPUT CARD>Cnv 2                                                                           
 INPUT CARD>                                                                                
 INPUT CARD>S                                                                               
 INPUT CARD>O 1 1.60                                                                        
 INPUT CARD>O 1 1.60 2 110.0                                                                
 INPUT CARD> $END                                                                           
    1000000 WORDS OF MEMORY AVAILABLE

     BASIS OPTIONS
     -------------
     GBASIS=PC1          IGAUSS=       0      POLAR=NONE    
     NDFUNC=       0     NFFUNC=       0     DIFFSP=       F
     NPFUNC=       0      DIFFS=       F     BASNAM=        


     RUN TITLE
     ---------
 Title                                                                           

 THE POINT GROUP OF THE MOLECULE IS CNV     
 THE ORDER OF THE PRINCIPAL AXIS IS     2

 YOUR FULLY SUBSTITUTED Z-MATRIX IS
 S   
 O      1   1.6000000
 O      1   1.6000000  2  110.0000

 THE MOMENTS OF INERTIA ARE (AMU-ANGSTROM**2)
 IXX=    13.467   IYY=    54.952   IZZ=    68.419

 ATOM      ATOMIC                      COORDINATES (BOHR)
           CHARGE         X                   Y                   Z
 S          16.0     0.0000000000        0.0000000000       -0.8673624723
 O           8.0    -2.4767566496        0.0000000000        0.8668812041
 O           8.0     2.4767566496        0.0000000000        0.8668812041

          INTERNUCLEAR DISTANCES (ANGS.)
          ------------------------------

                1 S          2 O          3 O     

   1 S       0.0000000    1.6000000 *  1.6000000 *
   2 O       1.6000000 *  0.0000000    2.6212865 *
   3 O       1.6000000 *  2.6212865 *  0.0000000  

  * ... LESS THAN  3.000


     ATOMIC BASIS SET
     ----------------
 THE CONTRACTED PRIMITIVE FUNCTIONS HAVE BEEN UNNORMALIZED
 THE CONTRACTED BASIS FUNCTIONS ARE NOW NORMALIZED TO UNITY

  SHELL TYPE  PRIMITIVE        EXPONENT          CONTRACTION COEFFICIENT(S)

 S         

      1   S       1         55510.0000000    0.000587229760
      1   S       2          8326.7000000    0.004532413947
      1   S       3          1895.6000000    0.023265261648
      1   S       4           536.7700000    0.089696133027
      1   S       5           174.6700000    0.254098332277
      1   S       6            62.5780000    0.438665087637
      1   S       7            23.5730000    0.314547135094
      1   S       8             5.8908000    0.032727897102

      2   S       9          8326.7000000   -0.000019755715
      2   S      10          1895.6000000   -0.000043822381
      2   S      11           536.7700000   -0.001730264906
      2   S      12           174.6700000   -0.009381263460
      2   S      13            62.5780000   -0.064050766303
      2   S      14            23.5730000   -0.082478179196
      2   S      15             5.8908000    0.478342956889
      2   S      16             2.1852000    0.626896670208

      3   S      17          1895.6000000    0.000016227260
      3   S      18           536.7700000    0.000191135619
      3   S      19           174.6700000    0.001952069674
      3   S      20            62.5780000    0.010578701087
      3   S      21            23.5730000    0.022164934551
      3   S      22             5.8908000   -0.184968323118
      3   S      23             2.1852000   -0.480920750976
      3   S      24             0.4528200    1.243822243872

      4   S      25             0.1620200    1.000000000000

      5   P      26           395.4500000    0.004642761329
      5   P      27            92.8340000    0.036023396489
      5   P      28            29.2660000    0.149058869978
      5   P      29            10.5950000    0.360033266263
      5   P      30             4.0272000    0.455756476221
      5   P      31             1.5484000    0.206167664178

      6   P      32            92.8340000    0.000169901442
      6   P      33            29.2660000   -0.002541839934
      6   P      34            10.5950000   -0.007867614595
      6   P      35             4.0272000   -0.037231009184
      6   P      36             1.5484000    0.161417246830
      6   P      37             0.4613400    0.902230419976

      7   P      38             0.1313100    1.000000000000

      8   D      39             0.5500000    1.000000000000

 O         

     15   S      40          2306.7000000    0.005424388755
     15   S      41           347.1500000    0.040474749465
     15   S      42            78.8900000    0.180219634554
     15   S      43            21.8760000    0.462370311787
     15   S      44             6.6646000    0.454888396263

     16   S      45           347.1500000   -0.000655003786
     16   S      46            78.8900000   -0.005362052952
     16   S      47            21.8760000   -0.074902158894
     16   S      48             6.6646000   -0.181442579655
     16   S      49             1.0669000    1.102006874042

     17   S      50             0.3070000    1.000000000000

     18   P      51            17.0220000    0.068979967443
     18   P      52             3.6838000    0.351985516325
     18   P      53             0.9923400    0.724036547822

     19   P      54             0.2448700    1.000000000000

     20   D      55             1.0000000    1.000000000000

 TOTAL NUMBER OF BASIS SET SHELLS             =   20
 NUMBER OF CARTESIAN GAUSSIAN BASIS FUNCTIONS =   49
 NOTE: THIS RUN WILL RESTRICT THE MO VARIATION SPACE TO SPHERICAL HARMONICS.
 THE NUMBER OF ORBITALS KEPT IN THE VARIATIONAL SPACE WILL BE PRINTED LATER.
 NUMBER OF ELECTRONS                          =   32
 CHARGE OF MOLECULE                           =    0
 SPIN MULTIPLICITY                            =    1
 NUMBER OF OCCUPIED ORBITALS (ALPHA)          =   16
 NUMBER OF OCCUPIED ORBITALS (BETA )          =   16
 TOTAL NUMBER OF ATOMS                        =    3
 THE NUCLEAR REPULSION ENERGY IS       97.5884826549

     LEBEDEV GRID-BASED DFT OPTIONS
     ------------------------------
     DFTTYP=PBE     
     NRAD  =      96     NLEB  =     302
     NRAD0 =      24     NLEB0 =     110
     SWOFF =    5.00E-03 (PURE SCF -> DFT)
     SWITCH=    3.00E-04 (COARSE -> TIGHT GRID)
     THRESH=    0.00E+00 GTHRE=    1.00E+00

 GRIMME'S EMPIRICAL DISPERSION CORRECTION= F

     $CONTRL OPTIONS
     ---------------
 SCFTYP=RHF          RUNTYP=ENERGY       EXETYP=RUN     
 MPLEVL=       0     CITYP =NONE         CCTYP =NONE         VBTYP =NONE    
 DFTTYP=PBE          TDDFT =NONE    
 MULT  =       1     ICHARG=       0     NZVAR =       0     COORD =ZMT     
 PP    =NONE         RELWFN=NONE         LOCAL =NONE         NUMGRD=       F
 ISPHER=       1     NOSYM =       0     MAXIT =      30     UNITS =ANGS    
 PLTORB=       F     MOLPLT=       F     AIMPAC=       F     FRIEND=        
 NPRINT=       7     IREST =       0     GEOM  =INPUT   
 NORMF =       0     NORMP =       0     ITOL  =      20     ICUT  =       9
 INTTYP=BEST         GRDTYP=BEST         QMTTOL= 1.0E-06

     $SYSTEM OPTIONS
     ---------------
  REPLICATED MEMORY=     1000000 WORDS (ON EVERY NODE).
 DISTRIBUTED MEMDDI=           0 MILLION WORDS IN AGGREGATE,
 MEMDDI DISTRIBUTED OVER   1 PROCESSORS IS           0 WORDS/PROCESSOR.
 TOTAL MEMORY REQUESTED ON EACH PROCESSOR=     1000000 WORDS.
 TIMLIM=      525600.00 MINUTES, OR     365.0 DAYS.
 PARALL= F  BALTYP=  DLB     KDIAG=    0  COREFL= F
 MXSEQ2=     300 MXSEQ3=     150

          ----------------
          PROPERTIES INPUT
          ----------------

     MOMENTS            FIELD           POTENTIAL          DENSITY
 IEMOM =       1   IEFLD =       0   IEPOT =       0   IEDEN =       0
 WHERE =COMASS     WHERE =NUCLEI     WHERE =NUCLEI     WHERE =NUCLEI  
 OUTPUT=BOTH       OUTPUT=BOTH       OUTPUT=BOTH       OUTPUT=BOTH    
 IEMINT=       0   IEFINT=       0                     IEDINT=       0
                                                       MORB  =       0
          EXTRAPOLATION IN EFFECT
          DIIS IN EFFECT
 ORBITAL PRINTING OPTION: NPREO=     1    49     2     1

     -------------------------------
     INTEGRAL TRANSFORMATION OPTIONS
     -------------------------------
     NWORD  =            0
     CUTOFF = 1.0E-09     MPTRAN =       0
     DIRTRF =       F     AOINTS =DUP     

          ----------------------
          INTEGRAL INPUT OPTIONS
          ----------------------
 NOPK  =       1 NORDER=       0 SCHWRZ=       F

   --- ENCODED Z MATRIX ---
 COORD  TYPE   I   J   K   L   M   N
    1      1    3   1
    2      1    2   1
    3      2    2   1   3

 THE DETERMINANT OF THE G MATRIX IS 10**(    -4)

 THE DETERMINANT OF THE G MATRIX IS 10**(    -4)
 * * * WARNING * * *
 YOUR B MATRIX HAS A SMALL DETERMINANT.
 THIS SUGGESTS YOU MAY HAVE BADLY CHOSEN COORDINATES.

     ------------------------------------------
     THE POINT GROUP IS CNV, NAXIS= 2, ORDER= 4
     ------------------------------------------

 -- VARIATIONAL SPACE WILL BE RESTRICTED TO PURE SPHERICAL HARMONICS ONLY --
 AFTER EXCLUDING CONTAMINANT COMBINATIONS FROM THE CARTESIAN GAUSSIAN BASIS
 SET, THE NUMBER OF SPHERICAL HARMONICS KEPT IN THE VARIATION SPACE IS   46

     DIMENSIONS OF THE SYMMETRY SUBSPACES ARE
 A1  =   19     A2  =    5     B1  =   14     B2  =    8

 ..... DONE SETTING UP THE RUN .....
 STEP CPU TIME =     0.01 TOTAL CPU TIME =        0.0 (    0.0 MIN)
 TOTAL WALL CLOCK TIME=        0.0 SECONDS, CPU UTILIZATION IS  50.00%

          ********************
          1 ELECTRON INTEGRALS
          ********************
 ...... END OF ONE-ELECTRON INTEGRALS ......
 STEP CPU TIME =     0.01 TOTAL CPU TIME =        0.0 (    0.0 MIN)
 TOTAL WALL CLOCK TIME=        0.0 SECONDS, CPU UTILIZATION IS  66.67%

          -------------
          GUESS OPTIONS
          -------------
          GUESS =HUCKEL            NORB  =       0          NORDER=       0
          MIX   =       F          PRTMO =       F          PUNMO =       F
          TOLZ  = 1.0E-08          TOLE  = 1.0E-05
          SYMDEN=       F          PURIFY=       F

 INITIAL GUESS ORBITALS GENERATED BY HUCKEL   ROUTINE.
 HUCKEL GUESS REQUIRES     21583 WORDS.

 STATISTICS FOR GENERATION OF SYMMETRY ORBITAL -Q- MATRIX
 NUMBER OF CARTESIAN ATOMIC ORBITALS=         49
 NUMBER OF SPHERICAL CONTAMINANTS DROPPED=     3
 NUMBER OF LINEARLY DEPENDENT MOS DROPPED=     0
 TOTAL NUMBER OF MOS IN VARIATION SPACE=      46

 SYMMETRIES FOR INITIAL GUESS ORBITALS FOLLOW.   BOTH SET(S).
    16 ORBITALS ARE OCCUPIED (    7 CORE ORBITALS).
     8=?A1      9=?B1     10=?A1     11=B2      12=A1      13=B1      14=A2  
    15=B1      16=A1      17=B2      18=?B1     19=?A1     20=A1      21=A1  
    22=A1      23=A1      24=A1      25=A1      26=A1  
 ...... END OF INITIAL ORBITAL SELECTION ......
 STEP CPU TIME =     0.00 TOTAL CPU TIME =        0.0 (    0.0 MIN)
 TOTAL WALL CLOCK TIME=        0.0 SECONDS, CPU UTILIZATION IS  66.67%

                    ----------------------
                    AO INTEGRAL TECHNOLOGY
                    ----------------------
     S,P,L SHELL ROTATED AXIS INTEGRALS, REPROGRAMMED BY
        KAZUYA ISHIMURA (IMS) AND JOSE SIERRA (SYNSTAR).
     S,P,D,L SHELL ROTATED AXIS INTEGRALS PROGRAMMED BY
        KAZUYA ISHIMURA (INSTITUTE FOR MOLECULAR SCIENCE).
     S,P,D,F,G SHELL TO TOTAL QUARTET ANGULAR MOMENTUM SUM 5,
        ERIC PROGRAM BY GRAHAM FLETCHER (ELORET AND NASA ADVANCED
        SUPERCOMPUTING DIVISION, AMES RESEARCH CENTER).
     S,P,D,F,G,L SHELL GENERAL RYS QUADRATURE PROGRAMMED BY
        MICHEL DUPUIS (PACIFIC NORTHWEST NATIONAL LABORATORY).

          --------------------
          2 ELECTRON INTEGRALS
          --------------------

 THE -PK- OPTION IS OFF, THE INTEGRALS ARE NOT IN SUPERMATRIX FORM.
 STORING   15000 INTEGRALS/RECORD ON DISK, USING 12 BYTES/INTEGRAL.
 TWO ELECTRON INTEGRAL EVALUATION REQUIRES   90606 WORDS OF MEMORY.
 II,JST,KST,LST =  1  1  1  1 NREC =         1 INTLOC =    1
 II,JST,KST,LST =  2  1  1  1 NREC =         1 INTLOC =    2
 II,JST,KST,LST =  3  1  1  1 NREC =         1 INTLOC =    7
 II,JST,KST,LST =  4  1  1  1 NREC =         1 INTLOC =   22
 II,JST,KST,LST =  5  1  1  1 NREC =         1 INTLOC =   56
 II,JST,KST,LST =  6  1  1  1 NREC =         1 INTLOC =  125
 II,JST,KST,LST =  7  1  1  1 NREC =         1 INTLOC =  329
 II,JST,KST,LST =  8  1  1  1 NREC =         1 INTLOC =  776
 II,JST,KST,LST =  9  1  1  1 NREC =         1 INTLOC = 2864
 II,JST,KST,LST = 10  1  1  1 NREC =         1 INTLOC = 2864
 II,JST,KST,LST = 11  1  1  1 NREC =         1 INTLOC = 2864
 II,JST,KST,LST = 12  1  1  1 NREC =         1 INTLOC = 2864
 II,JST,KST,LST = 13  1  1  1 NREC =         1 INTLOC = 2864
 II,JST,KST,LST = 14  1  1  1 NREC =         1 INTLOC = 2864
 II,JST,KST,LST = 15  1  1  1 NREC =         1 INTLOC = 2864
 II,JST,KST,LST = 16  1  1  1 NREC =         1 INTLOC = 5059
 II,JST,KST,LST = 17  1  1  1 NREC =         1 INTLOC = 8220
 II,JST,KST,LST = 18  1  1  1 NREC =         1 INTLOC =12644
 II,JST,KST,LST = 19  1  1  1 NREC =         3 INTLOC =  218
 II,JST,KST,LST = 20  1  1  1 NREC =         5 INTLOC = 1266
 TOTAL NUMBER OF NONZERO TWO-ELECTRON INTEGRALS =              176070
         12 INTEGRAL RECORDS WERE STORED ON DISK FILE  8.
  ...... END OF TWO-ELECTRON INTEGRALS .....
 STEP CPU TIME =     0.16 TOTAL CPU TIME =        0.2 (    0.0 MIN)
 TOTAL WALL CLOCK TIME=        0.2 SECONDS, CPU UTILIZATION IS  94.74%

          --------------------------
               R-PBE SCF CALCULATION
          --------------------------

     NUCLEAR ENERGY =        97.5884826549
     MAXIT =   30     NPUNCH=    2
     EXTRAP=T  DAMP=F  SHIFT=F  RSTRCT=F  DIIS=T  DEM=F  SOSCF=F
         DENSITY MATRIX CONVERGENCE THRESHOLD=  1.00E-05
     COARSE -> FINE DFT GRID SWITCH THRESHOLD=  3.00E-04 (SWITCH IN $DFT)
                   HF -> DFT SWITCH THRESHOLD=  5.00E-03 (SWOFF IN $DFT)
     MEMORY REQUIRED FOR RHF ITERS=    183108 WORDS.

 DFT CODE IS SWITCHING FROM THE FINE GRID NRAD= 96,  NLEB=  302
                      TO THE COARSE GRID NRAD0= 24, NLEB0=  110

     EXCHANGE FUNCTIONAL   =PBE       
     CORRELATION FUNCTIONAL=PBE       
     DFT THRESHOLD         =.460E-07
     GRID CHANGE THRESHOLD =.300E-03
 FOR AN EULER-MACLAURIN QUADRATURE USING  96 RADIAL POINTS:
 SMALLEST GAUSSIAN PRIMITIVE EXPONENT=        0.1313100000 OF TYPE -P-
 ON ATOM NUMBER   1 HAS RADIAL NORMALIZATION=  1.000000
  LARGEST GAUSSIAN PRIMITIVE EXPONENT=    55510.0000000000 OF TYPE -S-
 ON ATOM NUMBER   1 HAS RADIAL NORMALIZATION=  0.999999
 DFT IS SWITCHED OFF, PERFORMING PURE SCF UNTIL SWOFF THRESHOLD IS REACHED.

 ITER EX DEM     TOTAL ENERGY        E CHANGE  DENSITY CHANGE    DIIS ERROR
   1  0  0     -546.0606972166  -546.0606972166   0.433752856   1.383669809
          * * *   INITIATING DIIS PROCEDURE   * * *
   2  1  0     -546.6811269050    -0.6204296885   0.444358596   0.349130171
   3  2  0     -546.7343836946    -0.0532567896   0.200354434   0.364813224
   4  3  0     -547.0542952952    -0.3199116006   0.015716327   0.012529157
   5  4  0     -547.0548994964    -0.0006042012   0.003974311   0.004968129
 CONVERGED TO SWOFF, SO DFT CALCULATION IS NOW SWITCHED ON.
          * * *   INITIATING DIIS PROCEDURE   * * *
   6  5  0     -548.2088498172    -1.1539503208   0.306574220   0.112655415
   7  6  0     -548.1971228580     0.0117269593   0.267401345   0.135932330
   8  7  0     -548.2065320080    -0.0094091500   0.086159689   0.145875726
   9  8  0     -548.2493276052    -0.0427955972   0.016332409   0.013774116
  10  9  0     -548.2499194931    -0.0005918879   0.000812179   0.001132615
  11 10  0     -548.2499228189    -0.0000033258   0.000524935   0.000475292
  12 11  0     -548.2499233649    -0.0000005460   0.000055409   0.000049471
 DFT CODE IS SWITCHING BACK TO THE FINE GRID
          * * *   INITIATING DIIS PROCEDURE   * * *
  13 12  0     -548.2443996945     0.0055236705   0.006941885   0.009751018
  14 13  0     -548.2444715157    -0.0000718212   0.014153526   0.006851211
  15 14  0     -548.2443095730     0.0001619427   0.008797058   0.011058025
  16 15  0     -548.2445710525    -0.0002614795   0.000237767   0.000348601
  17 16  0     -548.2445714101    -0.0000003576   0.000048657   0.000021914
  18 17  0     -548.2445714118    -0.0000000017   0.000004098   0.000006092
  19 18  0     -548.2445714119    -0.0000000001   0.000001062   0.000000663

          -----------------
          DENSITY CONVERGED
          -----------------
     TIME TO FORM FOCK OPERATORS=       3.8 SECONDS (       0.2 SEC/ITER)
     TIME TO SOLVE SCF EQUATIONS=       0.0 SECONDS (       0.0 SEC/ITER)

 FINAL R-PBE ENERGY IS     -548.2445714119 AFTER  19 ITERATIONS
 DFT EXCHANGE + CORRELATION ENERGY =       -42.3625797786
 TOTAL ELECTRON NUMBER             =        31.9999473415

          ------------
          EIGENVECTORS
          ------------

                      1          2          3          4          5
                  -88.2211   -18.8095   -18.8095    -7.8435    -5.8644
                     A1         A1         B1         A1         B1  
    1  S  1  S    1.002980  -0.000075   0.000000  -0.274082   0.000000
    2  S  1  S   -0.010278  -0.001024   0.000000   1.039518   0.000000
    3  S  1  S    0.001804  -0.001931   0.000000   0.040859   0.000000
    4  S  1  S   -0.000864   0.010550   0.000000  -0.011964   0.000000
    5  S  1  X    0.000000   0.000000   0.000061   0.000000   0.996760
    6  S  1  Y    0.000000   0.000000   0.000000   0.000000   0.000000
    7  S  1  Z    0.000055  -0.000117   0.000000   0.009427   0.000000
    8  S  1  X    0.000000   0.000000  -0.001277   0.000000   0.009198
    9  S  1  Y    0.000000   0.000000   0.000000   0.000000   0.000000
   10  S  1  Z    0.000067   0.001213   0.000000   0.001167   0.000000
   11  S  1  X    0.000000   0.000000  -0.004398   0.000000  -0.000230
   12  S  1  Y    0.000000   0.000000   0.000000   0.000000   0.000000
   13  S  1  Z   -0.000051   0.004682   0.000000  -0.000700   0.000000
   14  S  1 XX    0.000044   0.000921   0.000000   0.000615   0.000000
   15  S  1 YY   -0.000034  -0.001210   0.000000  -0.000395   0.000000
   16  S  1 ZZ   -0.000009   0.000289   0.000000  -0.000219   0.000000
   17  S  1 XY    0.000000   0.000000   0.000000   0.000000   0.000000
   18  S  1 XZ    0.000000   0.000000  -0.000947   0.000000   0.000653
   19  S  1 YZ    0.000000   0.000000   0.000000   0.000000   0.000000
   20  O  2  S    0.000006   0.703308   0.703246   0.000020   0.000175
   21  O  2  S    0.000017   0.025959   0.025344  -0.000079  -0.000020
   22  O  2  S    0.000020  -0.013325  -0.011204   0.000469  -0.000137
   23  O  2  X   -0.000016   0.000801   0.000779  -0.000280  -0.000200
   24  O  2  Y    0.000000   0.000000   0.000000   0.000000   0.000000
   25  O  2  Z    0.000006  -0.000475  -0.000630   0.000149   0.000154
   26  O  2  X   -0.000063  -0.003556  -0.001966  -0.000590  -0.000083
   27  O  2  Y    0.000000   0.000000   0.000000   0.000000   0.000000
   28  O  2  Z    0.000069   0.001594   0.001997   0.000687   0.000083
   29  O  2 XX   -0.000054  -0.000367  -0.000151  -0.000372  -0.000160
   30  O  2 YY    0.000058   0.000260   0.000231   0.000412   0.000210
   31  O  2 ZZ   -0.000004   0.000107  -0.000080  -0.000041  -0.000050
   32  O  2 XY    0.000000   0.000000   0.000000   0.000000   0.000000
   33  O  2 XZ    0.000096   0.000387   0.000329   0.000681   0.000352
   34  O  2 YZ    0.000000   0.000000   0.000000   0.000000   0.000000
   35  O  3  S    0.000006   0.703308  -0.703246   0.000020  -0.000175
   36  O  3  S    0.000017   0.025959  -0.025344  -0.000079   0.000020
   37  O  3  S    0.000020  -0.013325   0.011204   0.000469   0.000137
   38  O  3  X    0.000016  -0.000801   0.000779   0.000280  -0.000200
   39  O  3  Y    0.000000   0.000000   0.000000   0.000000   0.000000
   40  O  3  Z    0.000006  -0.000475   0.000630   0.000149  -0.000154
   41  O  3  X    0.000063   0.003556  -0.001966   0.000590  -0.000083
   42  O  3  Y    0.000000   0.000000   0.000000   0.000000   0.000000
   43  O  3  Z    0.000069   0.001594  -0.001997   0.000687  -0.000083
   44  O  3 XX   -0.000054  -0.000367   0.000151  -0.000372   0.000160
   45  O  3 YY    0.000058   0.000260  -0.000231   0.000412  -0.000210
   46  O  3 ZZ   -0.000004   0.000107   0.000080  -0.000041   0.000050
   47  O  3 XY    0.000000   0.000000   0.000000   0.000000   0.000000
   48  O  3 XZ   -0.000096  -0.000387   0.000329  -0.000681   0.000352
   49  O  3 YZ    0.000000   0.000000   0.000000   0.000000   0.000000

                      6          7          8          9         10
                   -5.8632    -5.8592    -0.9932    -0.9162    -0.6180
                     B2         A1         A1         B1         A1  
    1  S  1  S    0.000000   0.002606   0.047926   0.000000   0.070164
    2  S  1  S    0.000000  -0.010069  -0.136208   0.000000  -0.196360
    3  S  1  S    0.000000  -0.000297   0.285633   0.000000   0.445760
    4  S  1  S    0.000000  -0.000441   0.151297   0.000000   0.417792
    5  S  1  X    0.000000   0.000000   0.000000   0.102870   0.000000
    6  S  1  Y    0.996868   0.000000   0.000000   0.000000   0.000000
    7  S  1  Z    0.000000   0.996868  -0.057257   0.000000   0.044341
    8  S  1  X    0.000000   0.000000   0.000000  -0.205255   0.000000
    9  S  1  Y    0.009008   0.000000   0.000000   0.000000   0.000000
   10  S  1  Z    0.000000   0.008746   0.112042   0.000000  -0.089568
   11  S  1  X    0.000000   0.000000   0.000000  -0.030141   0.000000
   12  S  1  Y   -0.000204   0.000000   0.000000   0.000000   0.000000
   13  S  1  Z    0.000000  -0.000301   0.001195   0.000000  -0.066497
   14  S  1 XX    0.000000  -0.000371   0.029427   0.000000  -0.010450
   15  S  1 YY    0.000000  -0.000218  -0.028365   0.000000   0.017081
   16  S  1 ZZ    0.000000   0.000589  -0.001063   0.000000  -0.006631
   17  S  1 XY    0.000000   0.000000   0.000000   0.000000   0.000000
   18  S  1 XZ    0.000000   0.000000   0.000000  -0.065259   0.000000
   19  S  1 YZ    0.000480   0.000000   0.000000   0.000000   0.000000
   20  O  2  S    0.000000  -0.000138  -0.123990  -0.148846   0.099725
   21  O  2  S    0.000000  -0.000088   0.245137   0.302337  -0.206209
   22  O  2  S    0.000000   0.000468   0.295141   0.364296  -0.319558
   23  O  2  X    0.000000   0.000199   0.088668   0.071981   0.092224
   24  O  2  Y    0.000024   0.000000   0.000000   0.000000   0.000000
   25  O  2  Z    0.000000  -0.000113  -0.057660  -0.059130  -0.081201
   26  O  2  X    0.000000   0.000214   0.040651   0.029233   0.042087
   27  O  2  Y   -0.000059   0.000000   0.000000   0.000000   0.000000
   28  O  2  Z    0.000000  -0.000247  -0.025563  -0.025936  -0.034008
   29  O  2 XX    0.000000   0.000199   0.007729   0.002174   0.003123
   30  O  2 YY    0.000000  -0.000191  -0.005706  -0.002155  -0.005191
   31  O  2 ZZ    0.000000  -0.000009  -0.002024  -0.000019   0.002068
   32  O  2 XY    0.000025   0.000000   0.000000   0.000000   0.000000
   33  O  2 XZ    0.000000  -0.000325  -0.011875  -0.008341  -0.006928
   34  O  2 YZ   -0.000027   0.000000   0.000000   0.000000   0.000000
   35  O  3  S    0.000000  -0.000138  -0.123990   0.148846   0.099725
   36  O  3  S    0.000000  -0.000088   0.245137  -0.302337  -0.206209
   37  O  3  S    0.000000   0.000468   0.295141  -0.364296  -0.319558
   38  O  3  X    0.000000  -0.000199  -0.088668   0.071981  -0.092224
   39  O  3  Y    0.000024   0.000000   0.000000   0.000000   0.000000
   40  O  3  Z    0.000000  -0.000113  -0.057660   0.059130  -0.081201
   41  O  3  X    0.000000  -0.000214  -0.040651   0.029233  -0.042087
   42  O  3  Y   -0.000059   0.000000   0.000000   0.000000   0.000000
   43  O  3  Z    0.000000  -0.000247  -0.025563   0.025936  -0.034008
   44  O  3 XX    0.000000   0.000199   0.007729  -0.002174   0.003123
   45  O  3 YY    0.000000  -0.000191  -0.005706   0.002155  -0.005191
   46  O  3 ZZ    0.000000  -0.000009  -0.002024   0.000019   0.002068
   47  O  3 XY   -0.000025   0.000000   0.000000   0.000000   0.000000
   48  O  3 XZ    0.000000   0.000325   0.011875  -0.008341   0.006928
   49  O  3 YZ   -0.000027   0.000000   0.000000   0.000000   0.000000

                     11         12         13         14         15
                   -0.4314    -0.4166    -0.4162    -0.3115    -0.2919
                     B1         A1         B2         A2         A1  
    1  S  1  S    0.000000  -0.008182   0.000000   0.000000   0.015158
    2  S  1  S    0.000000   0.048833   0.000000   0.000000  -0.072595
    3  S  1  S    0.000000  -0.017513   0.000000   0.000000   0.059990
    4  S  1  S    0.000000  -0.246645   0.000000   0.000000   0.369020
    5  S  1  X   -0.178542   0.000000   0.000000   0.000000   0.000000
    6  S  1  Y    0.000000   0.000000  -0.209239   0.000000   0.000000
    7  S  1  Z    0.000000  -0.202488   0.000000   0.000000   0.080915
    8  S  1  X    0.424678   0.000000   0.000000   0.000000   0.000000
    9  S  1  Y    0.000000   0.000000   0.491690   0.000000   0.000000
   10  S  1  Z    0.000000   0.475299   0.000000   0.000000  -0.195596
   11  S  1  X    0.113099   0.000000   0.000000   0.000000   0.000000
   12  S  1  Y    0.000000   0.000000   0.289292   0.000000   0.000000
   13  S  1  Z    0.000000   0.209147   0.000000   0.000000  -0.057585
   14  S  1 XX    0.000000  -0.027353   0.000000   0.000000  -0.123720
   15  S  1 YY    0.000000  -0.019621   0.000000   0.000000   0.043172
   16  S  1 ZZ    0.000000   0.046974   0.000000   0.000000   0.080548
   17  S  1 XY    0.000000   0.000000   0.000000  -0.102776   0.000000
   18  S  1 XZ    0.043629   0.000000   0.000000   0.000000   0.000000
   19  S  1 YZ    0.000000   0.000000   0.044473   0.000000   0.000000
   20  O  2  S   -0.062433   0.033984   0.000000   0.000000  -0.002540
   21  O  2  S    0.124449  -0.068802   0.000000   0.000000   0.005683
   22  O  2  S    0.238070  -0.123412   0.000000   0.000000  -0.020786
   23  O  2  X   -0.242671   0.308162   0.000000   0.000000   0.018468
   24  O  2  Y    0.000000   0.000000   0.291357   0.469732   0.000000
   25  O  2  Z    0.265885   0.049596   0.000000   0.000000   0.446766
   26  O  2  X   -0.138129   0.196128   0.000000   0.000000   0.013171
   27  O  2  Y    0.000000   0.000000   0.175470   0.334981   0.000000
   28  O  2  Z    0.156187   0.029830   0.000000   0.000000   0.329850
   29  O  2 XX   -0.001107   0.017829   0.000000   0.000000   0.006733
   30  O  2 YY    0.007536  -0.005876   0.000000   0.000000   0.003973
   31  O  2 ZZ   -0.006429  -0.011952   0.000000   0.000000  -0.010706
   32  O  2 XY    0.000000   0.000000   0.016425   0.014485   0.000000
   33  O  2 XZ    0.012488  -0.002893   0.000000   0.000000   0.010997
   34  O  2 YZ    0.000000   0.000000  -0.011141  -0.011883   0.000000
   35  O  3  S    0.062433   0.033984   0.000000   0.000000  -0.002540
   36  O  3  S   -0.124449  -0.068802   0.000000   0.000000   0.005683
   37  O  3  S   -0.238070  -0.123412   0.000000   0.000000  -0.020786
   38  O  3  X   -0.242671  -0.308162   0.000000   0.000000  -0.018468
   39  O  3  Y    0.000000   0.000000   0.291357  -0.469732   0.000000
   40  O  3  Z   -0.265885   0.049596   0.000000   0.000000   0.446766
   41  O  3  X   -0.138129  -0.196128   0.000000   0.000000  -0.013171
   42  O  3  Y    0.000000   0.000000   0.175470  -0.334981   0.000000
   43  O  3  Z   -0.156187   0.029830   0.000000   0.000000   0.329850
   44  O  3 XX    0.001107   0.017829   0.000000   0.000000   0.006733
   45  O  3 YY   -0.007536  -0.005876   0.000000   0.000000   0.003973
   46  O  3 ZZ    0.006429  -0.011952   0.000000   0.000000  -0.010706
   47  O  3 XY    0.000000   0.000000  -0.016425   0.014485   0.000000
   48  O  3 XZ    0.012488   0.002893   0.000000   0.000000  -0.010997
   49  O  3 YZ    0.000000   0.000000  -0.011141   0.011883   0.000000

                     16         17         18         19         20
                   -0.2855    -0.1994    -0.0360    -0.0303     0.3478
                     B1         B2         B1         A1         A1  
    1  S  1  S    0.000000   0.000000   0.000000   0.030667  -0.003512
    2  S  1  S    0.000000   0.000000   0.000000  -0.111738  -0.057778
    3  S  1  S    0.000000   0.000000   0.000000   0.178815  -0.107109
    4  S  1  S    0.000000   0.000000   0.000000   0.704067   0.453231
    5  S  1  X   -0.014334   0.000000  -0.193604   0.000000   0.000000
    6  S  1  Y    0.000000  -0.204130   0.000000   0.000000   0.000000
    7  S  1  Z    0.000000   0.000000   0.000000  -0.172544   0.278953
    8  S  1  X    0.026753   0.000000   0.493402   0.000000   0.000000
    9  S  1  Y    0.000000   0.513185   0.000000   0.000000   0.000000
   10  S  1  Z    0.000000   0.000000   0.000000   0.450322  -1.056546
   11  S  1  X    0.141888   0.000000   0.895312   0.000000   0.000000
   12  S  1  Y    0.000000   0.423790   0.000000   0.000000   0.000000
   13  S  1  Z    0.000000   0.000000   0.000000   0.754821   1.386164
   14  S  1 XX    0.000000   0.000000   0.000000  -0.111881   0.202927
   15  S  1 YY    0.000000   0.000000   0.000000   0.175480   0.040078
   16  S  1 ZZ    0.000000   0.000000   0.000000  -0.063599  -0.243005
   17  S  1 XY    0.000000   0.000000   0.000000   0.000000   0.000000
   18  S  1 XZ   -0.090972   0.000000  -0.200045   0.000000   0.000000
   19  S  1 YZ    0.000000  -0.065587   0.000000   0.000000   0.000000
   20  O  2  S   -0.002353   0.000000  -0.043051   0.048192   0.011983
   21  O  2  S    0.003752   0.000000   0.072048  -0.085967   0.031458
   22  O  2  S    0.044085   0.000000   0.413571  -0.414878  -0.405412
   23  O  2  X    0.382235   0.000000   0.095524  -0.363274   0.161767
   24  O  2  Y    0.000000  -0.389301   0.000000   0.000000   0.000000
   25  O  2  Z    0.286394   0.000000  -0.307385   0.052604  -0.069814
   26  O  2  X    0.264066   0.000000   0.120670  -0.397818  -0.196069
   27  O  2  Y    0.000000  -0.317754   0.000000   0.000000   0.000000
   28  O  2  Z    0.193882   0.000000  -0.301236   0.054240  -0.023106
   29  O  2 XX    0.014955   0.000000   0.003267   0.002277  -0.040809
   30  O  2 YY   -0.000174   0.000000   0.002037   0.004142   0.019364
   31  O  2 ZZ   -0.014782   0.000000  -0.005304  -0.006418   0.021444
   32  O  2 XY    0.000000  -0.003071   0.000000   0.000000   0.000000
   33  O  2 XZ    0.002202   0.000000   0.001241   0.001954   0.012609
   34  O  2 YZ    0.000000   0.000911   0.000000   0.000000   0.000000
   35  O  3  S    0.002353   0.000000   0.043051   0.048192   0.011983
   36  O  3  S   -0.003752   0.000000  -0.072048  -0.085967   0.031458
   37  O  3  S   -0.044085   0.000000  -0.413571  -0.414878  -0.405412
   38  O  3  X    0.382235   0.000000   0.095524   0.363274  -0.161767
   39  O  3  Y    0.000000  -0.389301   0.000000   0.000000   0.000000
   40  O  3  Z   -0.286394   0.000000   0.307385   0.052604  -0.069814
   41  O  3  X    0.264066   0.000000   0.120670   0.397818   0.196069
   42  O  3  Y    0.000000  -0.317754   0.000000   0.000000   0.000000
   43  O  3  Z   -0.193882   0.000000   0.301236   0.054240  -0.023106
   44  O  3 XX   -0.014955   0.000000  -0.003267   0.002277  -0.040809
   45  O  3 YY    0.000174   0.000000  -0.002037   0.004142   0.019364
   46  O  3 ZZ    0.014782   0.000000   0.005304  -0.006418   0.021444
   47  O  3 XY    0.000000   0.003071   0.000000   0.000000   0.000000
   48  O  3 XZ    0.002202   0.000000   0.001241  -0.001954  -0.012609
   49  O  3 YZ    0.000000   0.000911   0.000000   0.000000   0.000000

                     21         22         23         24         25
                    0.3525     0.3647     0.3956     0.4994     0.5061
                     B2         B1         A1         A2         B2  
    1  S  1  S    0.000000   0.000000  -0.112632   0.000000   0.000000
    2  S  1  S    0.000000   0.000000  -0.407896   0.000000   0.000000
    3  S  1  S    0.000000   0.000000  -1.738378   0.000000   0.000000
    4  S  1  S    0.000000   0.000000   2.208302   0.000000   0.000000
    5  S  1  X    0.000000   0.292991   0.000000   0.000000   0.000000
    6  S  1  Y    0.285517   0.000000   0.000000   0.000000   0.068678
    7  S  1  Z    0.000000   0.000000  -0.029869   0.000000   0.000000
    8  S  1  X    0.000000  -1.100190   0.000000   0.000000   0.000000
    9  S  1  Y   -1.106126   0.000000   0.000000   0.000000  -0.273266
   10  S  1  Z    0.000000   0.000000   0.118467   0.000000   0.000000
   11  S  1  X    0.000000   1.488914   0.000000   0.000000   0.000000
   12  S  1  Y    1.236000   0.000000   0.000000   0.000000   0.254641
   13  S  1  Z    0.000000   0.000000   0.187530   0.000000   0.000000
   14  S  1 XX    0.000000   0.000000  -0.166316   0.000000   0.000000
   15  S  1 YY    0.000000   0.000000   0.243054   0.000000   0.000000
   16  S  1 ZZ    0.000000   0.000000  -0.076738   0.000000   0.000000
   17  S  1 XY    0.000000   0.000000   0.000000   0.894093   0.000000
   18  S  1 XZ    0.000000   0.109778   0.000000   0.000000   0.000000
   19  S  1 YZ   -0.232450   0.000000   0.000000   0.000000   0.894003
   20  O  2  S    0.000000  -0.010920   0.018048   0.000000   0.000000
   21  O  2  S    0.000000  -0.037985  -0.039582   0.000000   0.000000
   22  O  2  S    0.000000   0.480252  -0.342504   0.000000   0.000000
   23  O  2  X    0.000000  -0.230849   0.089025   0.000000   0.000000
   24  O  2  Y   -0.029873   0.000000   0.000000   0.316635  -0.277873
   25  O  2  Z    0.000000   0.091073  -0.113286   0.000000   0.000000
   26  O  2  X    0.000000   0.051704  -0.169747   0.000000   0.000000
   27  O  2  Y   -0.120956   0.000000   0.000000  -0.113592   0.101069
   28  O  2  Z    0.000000  -0.132353   0.099112   0.000000   0.000000
   29  O  2 XX    0.000000   0.012865  -0.023235   0.000000   0.000000
   30  O  2 YY    0.000000  -0.023050   0.032246   0.000000   0.000000
   31  O  2 ZZ    0.000000   0.010184  -0.009011   0.000000   0.000000
   32  O  2 XY   -0.024774   0.000000   0.000000  -0.036961   0.039815
   33  O  2 XZ    0.000000  -0.040976   0.041475   0.000000   0.000000
   34  O  2 YZ    0.011403   0.000000   0.000000   0.043729  -0.002505
   35  O  3  S    0.000000   0.010920   0.018048   0.000000   0.000000
   36  O  3  S    0.000000   0.037985  -0.039582   0.000000   0.000000
   37  O  3  S    0.000000  -0.480252  -0.342504   0.000000   0.000000
   38  O  3  X    0.000000  -0.230849  -0.089025   0.000000   0.000000
   39  O  3  Y   -0.029873   0.000000   0.000000  -0.316635  -0.277873
   40  O  3  Z    0.000000  -0.091073  -0.113286   0.000000   0.000000
   41  O  3  X    0.000000   0.051704   0.169747   0.000000   0.000000
   42  O  3  Y   -0.120956   0.000000   0.000000   0.113592   0.101069
   43  O  3  Z    0.000000   0.132353   0.099112   0.000000   0.000000
   44  O  3 XX    0.000000  -0.012865  -0.023235   0.000000   0.000000
   45  O  3 YY    0.000000   0.023050   0.032246   0.000000   0.000000
   46  O  3 ZZ    0.000000  -0.010184  -0.009011   0.000000   0.000000
   47  O  3 XY    0.024774   0.000000   0.000000  -0.036961  -0.039815
   48  O  3 XZ    0.000000  -0.040976  -0.041475   0.000000   0.000000
   49  O  3 YZ    0.011403   0.000000   0.000000  -0.043729  -0.002505

                     26         27         28         29         30
                    0.5188     0.6502     0.6829     0.7956     0.8019
                     A1         A1         B1         A1         A2  
    1  S  1  S   -0.004646  -0.014310   0.000000  -0.006371   0.000000
    2  S  1  S   -0.029233  -0.156420   0.000000  -0.032380   0.000000
    3  S  1  S   -0.087305  -0.344273   0.000000  -0.114735   0.000000
    4  S  1  S    0.172131   1.480970   0.000000   0.026597   0.000000
    5  S  1  X    0.000000   0.000000  -0.103990   0.000000   0.000000
    6  S  1  Y    0.000000   0.000000   0.000000   0.000000   0.000000
    7  S  1  Z    0.075814  -0.082489   0.000000  -0.025205   0.000000
    8  S  1  X    0.000000   0.000000   0.514926   0.000000   0.000000
    9  S  1  Y    0.000000   0.000000   0.000000   0.000000   0.000000
   10  S  1  Z   -0.301788   0.371900   0.000000   0.081863   0.000000
   11  S  1  X    0.000000   0.000000   0.444977   0.000000   0.000000
   12  S  1  Y    0.000000   0.000000   0.000000   0.000000   0.000000
   13  S  1  Z    0.339245   0.400700   0.000000  -0.454209   0.000000
   14  S  1 XX   -0.403922   0.668575   0.000000   0.584224   0.000000
   15  S  1 YY   -0.411506  -0.789340   0.000000  -0.093811   0.000000
   16  S  1 ZZ    0.815428   0.120765   0.000000  -0.490413   0.000000
   17  S  1 XY    0.000000   0.000000   0.000000   0.000000   0.465535
   18  S  1 XZ    0.000000   0.000000   0.784243   0.000000   0.000000
   19  S  1 YZ    0.000000   0.000000   0.000000   0.000000   0.000000
   20  O  2  S    0.004510   0.063276  -0.062077   0.003085   0.000000
   21  O  2  S   -0.021679  -0.232292   0.227371  -0.013124   0.000000
   22  O  2  S   -0.075711  -0.415667   0.311120   0.052271   0.000000
   23  O  2  X   -0.176303   0.214289  -0.151700  -0.419783   0.000000
   24  O  2  Y    0.000000   0.000000   0.000000   0.000000  -0.571955
   25  O  2  Z   -0.326295  -0.004552   0.200645  -0.301888   0.000000
   26  O  2  X    0.052657  -0.750190   0.700240   0.531901   0.000000
   27  O  2  Y    0.000000   0.000000   0.000000   0.000000   0.778514
   28  O  2  Z    0.129851   0.374905  -0.581208   0.554736   0.000000
   29  O  2 XX    0.036911  -0.008801  -0.026464  -0.050289   0.000000
   30  O  2 YY   -0.005350  -0.013816   0.009589  -0.009639   0.000000
   31  O  2 ZZ   -0.031561   0.022617   0.016875   0.059928   0.000000
   32  O  2 XY    0.000000   0.000000   0.000000   0.000000  -0.041740
   33  O  2 XZ    0.034462  -0.001498   0.019914  -0.020225   0.000000
   34  O  2 YZ    0.000000   0.000000   0.000000   0.000000   0.034696
   35  O  3  S    0.004510   0.063276   0.062077   0.003085   0.000000
   36  O  3  S   -0.021679  -0.232292  -0.227371  -0.013124   0.000000
   37  O  3  S   -0.075711  -0.415667  -0.311120   0.052271   0.000000
   38  O  3  X    0.176303  -0.214289  -0.151700   0.419783   0.000000
   39  O  3  Y    0.000000   0.000000   0.000000   0.000000   0.571955
   40  O  3  Z   -0.326295  -0.004552  -0.200645  -0.301888   0.000000
   41  O  3  X   -0.052657   0.750190   0.700240  -0.531901   0.000000
   42  O  3  Y    0.000000   0.000000   0.000000   0.000000  -0.778514
   43  O  3  Z    0.129851   0.374905   0.581208   0.554736   0.000000
   44  O  3 XX    0.036911  -0.008801   0.026464  -0.050289   0.000000
   45  O  3 YY   -0.005350  -0.013816  -0.009589  -0.009639   0.000000
   46  O  3 ZZ   -0.031561   0.022617  -0.016875   0.059928   0.000000
   47  O  3 XY    0.000000   0.000000   0.000000   0.000000  -0.041740
   48  O  3 XZ   -0.034462   0.001498   0.019914   0.020225   0.000000
   49  O  3 YZ    0.000000   0.000000   0.000000   0.000000  -0.034696

                     31         32         33         34         35
                    0.8373     0.8413     0.8638     0.9550     1.5492
                     B2         A1         B1         B1         B1  
    1  S  1  S    0.000000   0.035600   0.000000   0.000000   0.000000
    2  S  1  S    0.000000   0.199018   0.000000   0.000000   0.000000
    3  S  1  S    0.000000   0.659281   0.000000   0.000000   0.000000
    4  S  1  S    0.000000  -0.326216   0.000000   0.000000   0.000000
    5  S  1  X    0.000000   0.000000  -0.017061   0.011006  -0.027072
    6  S  1  Y   -0.026484   0.000000   0.000000   0.000000   0.000000
    7  S  1  Z    0.000000  -0.022076   0.000000   0.000000   0.000000
    8  S  1  X    0.000000   0.000000   0.042199  -0.236795   0.216056
    9  S  1  Y    0.125454   0.000000   0.000000   0.000000   0.000000
   10  S  1  Z    0.000000   0.237055   0.000000   0.000000   0.000000
   11  S  1  X    0.000000   0.000000  -0.315542   0.596605   0.981240
   12  S  1  Y   -0.639466   0.000000   0.000000   0.000000   0.000000
   13  S  1  Z    0.000000  -0.353110   0.000000   0.000000   0.000000
   14  S  1 XX    0.000000  -0.282687   0.000000   0.000000   0.000000
   15  S  1 YY    0.000000   0.463579   0.000000   0.000000   0.000000
   16  S  1 ZZ    0.000000  -0.180892   0.000000   0.000000   0.000000
   17  S  1 XY    0.000000   0.000000   0.000000   0.000000   0.000000
   18  S  1 XZ    0.000000   0.000000   0.350355   0.705870   0.333091
   19  S  1 YZ   -0.401065   0.000000   0.000000   0.000000   0.000000
   20  O  2  S    0.000000  -0.008203  -0.004386  -0.021984   0.010423
   21  O  2  S    0.000000   0.070082   0.001609   0.040448  -1.175913
   22  O  2  S    0.000000   0.083346  -0.026303   0.296248   1.718786
   23  O  2  X    0.000000   0.349378  -0.203828   0.590127  -0.028150
   24  O  2  Y   -0.582827   0.000000   0.000000   0.000000   0.000000
   25  O  2  Z    0.000000  -0.473765  -0.584225  -0.146225   0.064204
   26  O  2  X    0.000000  -0.358232   0.399804  -0.543285   0.355543
   27  O  2  Y    0.886595   0.000000   0.000000   0.000000   0.000000
   28  O  2  Z    0.000000   0.584674   0.721544  -0.001267  -0.421080
   29  O  2 XX    0.000000   0.020983  -0.041506   0.005102  -0.079894
   30  O  2 YY    0.000000  -0.012123   0.009707  -0.027407   0.105353
   31  O  2 ZZ    0.000000  -0.008860   0.031799   0.022305  -0.025459
   32  O  2 XY   -0.044606   0.000000   0.000000   0.000000   0.000000
   33  O  2 XZ    0.000000  -0.053469  -0.006175  -0.001723   0.155147
   34  O  2 YZ    0.022548   0.000000   0.000000   0.000000   0.000000
   35  O  3  S    0.000000  -0.008203   0.004386   0.021984  -0.010423
   36  O  3  S    0.000000   0.070082  -0.001609  -0.040448   1.175913
   37  O  3  S    0.000000   0.083346   0.026303  -0.296248  -1.718786
   38  O  3  X    0.000000  -0.349378  -0.203828   0.590127  -0.028150
   39  O  3  Y   -0.582827   0.000000   0.000000   0.000000   0.000000
   40  O  3  Z    0.000000  -0.473765   0.584225   0.146225  -0.064204
   41  O  3  X    0.000000   0.358232   0.399804  -0.543285   0.355543
   42  O  3  Y    0.886595   0.000000   0.000000   0.000000   0.000000
   43  O  3  Z    0.000000   0.584674  -0.721544   0.001267   0.421080
   44  O  3 XX    0.000000   0.020983   0.041506  -0.005102   0.079894
   45  O  3 YY    0.000000  -0.012123  -0.009707   0.027407  -0.105353
   46  O  3 ZZ    0.000000  -0.008860  -0.031799  -0.022305   0.025459
   47  O  3 XY    0.044606   0.000000   0.000000   0.000000   0.000000
   48  O  3 XZ    0.000000   0.053469  -0.006175  -0.001723   0.155147
   49  O  3 YZ    0.022548   0.000000   0.000000   0.000000   0.000000

                     36         37         38         39         40
                    1.6975     2.0812     2.0836     2.0867     2.0926
                     A1         A2         B2         B1         A1  
    1  S  1  S   -0.029355   0.000000   0.000000   0.000000  -0.000358
    2  S  1  S   -0.288646   0.000000   0.000000   0.000000   0.000972
    3  S  1  S   -0.668062   0.000000   0.000000   0.000000  -0.003881
    4  S  1  S    2.206350   0.000000   0.000000   0.000000  -0.040098
    5  S  1  X    0.000000   0.000000   0.000000  -0.004778   0.000000
    6  S  1  Y    0.000000   0.000000  -0.010809   0.000000   0.000000
    7  S  1  Z   -0.021922   0.000000   0.000000   0.000000   0.001405
    8  S  1  X    0.000000   0.000000   0.000000  -0.002347   0.000000
    9  S  1  Y    0.000000   0.000000   0.030211   0.000000   0.000000
   10  S  1  Z    0.151053   0.000000   0.000000   0.000000  -0.010741
   11  S  1  X    0.000000   0.000000   0.000000   0.066019   0.000000
   12  S  1  Y    0.000000   0.000000   0.035197   0.000000   0.000000
   13  S  1  Z    0.960875   0.000000   0.000000   0.000000  -0.023637
   14  S  1 XX    0.281877   0.000000   0.000000   0.000000   0.030516
   15  S  1 YY   -0.343821   0.000000   0.000000   0.000000  -0.071264
   16  S  1 ZZ    0.061944   0.000000   0.000000   0.000000   0.040748
   17  S  1 XY    0.000000   0.029818   0.000000   0.000000   0.000000
   18  S  1 XZ    0.000000   0.000000   0.000000  -0.020402   0.000000
   19  S  1 YZ    0.000000   0.000000  -0.003171   0.000000   0.000000
   20  O  2  S    0.002597   0.000000   0.000000  -0.000281   0.001481
   21  O  2  S    1.187774   0.000000   0.000000   0.006336  -0.038574
   22  O  2  S   -1.985711   0.000000   0.000000   0.010124   0.045393
   23  O  2  X    0.030668   0.000000   0.000000   0.037518  -0.022426
   24  O  2  Y    0.000000  -0.012940   0.017862   0.000000   0.000000
   25  O  2  Z    0.016440   0.000000   0.000000   0.022863   0.003014
   26  O  2  X   -0.625957   0.000000   0.000000  -0.059876   0.034959
   27  O  2  Y    0.000000   0.019870  -0.030692   0.000000   0.000000
   28  O  2  Z    0.233231   0.000000   0.000000  -0.038851  -0.002420
   29  O  2 XX    0.157381   0.000000   0.000000  -0.428470  -0.196666
   30  O  2 YY   -0.103190   0.000000   0.000000   0.566509   0.610003
   31  O  2 ZZ   -0.054191   0.000000   0.000000  -0.138039  -0.413337
   32  O  2 XY    0.000000   0.527397   0.241060   0.000000   0.000000
   33  O  2 XZ   -0.166454   0.000000   0.000000  -0.389541  -0.334737
   34  O  2 YZ    0.000000   0.471344   0.665259   0.000000   0.000000
   35  O  3  S    0.002597   0.000000   0.000000   0.000281   0.001481
   36  O  3  S    1.187774   0.000000   0.000000  -0.006336  -0.038574
   37  O  3  S   -1.985711   0.000000   0.000000  -0.010124   0.045393
   38  O  3  X   -0.030668   0.000000   0.000000   0.037518   0.022426
   39  O  3  Y    0.000000   0.012940   0.017862   0.000000   0.000000
   40  O  3  Z    0.016440   0.000000   0.000000  -0.022863   0.003014
   41  O  3  X    0.625957   0.000000   0.000000  -0.059876  -0.034959
   42  O  3  Y    0.000000  -0.019870  -0.030692   0.000000   0.000000
   43  O  3  Z    0.233231   0.000000   0.000000   0.038851  -0.002420
   44  O  3 XX    0.157381   0.000000   0.000000   0.428470  -0.196666
   45  O  3 YY   -0.103190   0.000000   0.000000  -0.566509   0.610003
   46  O  3 ZZ   -0.054191   0.000000   0.000000   0.138039  -0.413337
   47  O  3 XY    0.000000   0.527397  -0.241060   0.000000   0.000000
   48  O  3 XZ    0.166454   0.000000   0.000000  -0.389541   0.334737
   49  O  3 YZ    0.000000  -0.471344   0.665259   0.000000   0.000000

                     41         42         43         44         45
                    2.0953     2.1857     2.1954     2.3213     2.5988
                     B1         B2         A2         A1         A1  
    1  S  1  S    0.000000   0.000000   0.000000  -0.004489   0.026453
    2  S  1  S    0.000000   0.000000   0.000000  -0.045682  -0.104363
    3  S  1  S    0.000000   0.000000   0.000000  -0.104623   0.191051
    4  S  1  S    0.000000   0.000000   0.000000   0.324160   1.235096
    5  S  1  X   -0.027831   0.000000   0.000000   0.000000   0.000000
    6  S  1  Y    0.000000   0.038878   0.000000   0.000000   0.000000
    7  S  1  Z    0.000000   0.000000   0.000000  -0.034873  -0.123399
    8  S  1  X    0.096189   0.000000   0.000000   0.000000   0.000000
    9  S  1  Y    0.000000  -0.104522   0.000000   0.000000   0.000000
   10  S  1  Z    0.000000   0.000000   0.000000   0.100467   0.582123
   11  S  1  X    0.132353   0.000000   0.000000   0.000000   0.000000
   12  S  1  Y    0.000000  -0.162151   0.000000   0.000000   0.000000
   13  S  1  Z    0.000000   0.000000   0.000000   0.297611   0.381670
   14  S  1 XX    0.000000   0.000000   0.000000  -0.324809   0.423740
   15  S  1 YY    0.000000   0.000000   0.000000  -0.054455  -0.433216
   16  S  1 ZZ    0.000000   0.000000   0.000000   0.379264   0.009475
   17  S  1 XY    0.000000   0.000000  -0.350878   0.000000   0.000000
   18  S  1 XZ   -0.111325   0.000000   0.000000   0.000000   0.000000
   19  S  1 YZ    0.000000  -0.268709   0.000000   0.000000   0.000000
   20  O  2  S    0.000371   0.000000   0.000000   0.001812   0.021428
   21  O  2  S   -0.091186   0.000000   0.000000   0.147137   0.636815
   22  O  2  S    0.142003   0.000000   0.000000  -0.284102  -1.211770
   23  O  2  X    0.012950   0.000000   0.000000   0.034821   0.050228
   24  O  2  Y    0.000000  -0.057833   0.041887   0.000000   0.000000
   25  O  2  Z    0.055144   0.000000   0.000000   0.030799  -0.031877
   26  O  2  X   -0.012284   0.000000   0.000000  -0.167776  -0.578889
   27  O  2  Y    0.000000   0.142699  -0.101238   0.000000   0.000000
   28  O  2  Z   -0.099047   0.000000   0.000000  -0.096734   0.361227
   29  O  2 XX   -0.438321   0.000000   0.000000  -0.588229  -0.377518
   30  O  2 YY   -0.257395   0.000000   0.000000  -0.004280   0.386272
   31  O  2 ZZ    0.695716   0.000000   0.000000   0.592508  -0.008754
   32  O  2 XY    0.000000   0.676927  -0.483361   0.000000   0.000000
   33  O  2 XZ   -0.099866   0.000000   0.000000  -0.265742   0.608659
   34  O  2 YZ    0.000000  -0.250664   0.535291   0.000000   0.000000
   35  O  3  S   -0.000371   0.000000   0.000000   0.001812   0.021428
   36  O  3  S    0.091186   0.000000   0.000000   0.147137   0.636815
   37  O  3  S   -0.142003   0.000000   0.000000  -0.284102  -1.211770
   38  O  3  X    0.012950   0.000000   0.000000  -0.034821  -0.050228
   39  O  3  Y    0.000000  -0.057833  -0.041887   0.000000   0.000000
   40  O  3  Z   -0.055144   0.000000   0.000000   0.030799  -0.031877
   41  O  3  X   -0.012284   0.000000   0.000000   0.167776   0.578889
   42  O  3  Y    0.000000   0.142699   0.101238   0.000000   0.000000
   43  O  3  Z    0.099047   0.000000   0.000000  -0.096734   0.361227
   44  O  3 XX    0.438321   0.000000   0.000000  -0.588229  -0.377518
   45  O  3 YY    0.257395   0.000000   0.000000  -0.004280   0.386272
   46  O  3 ZZ   -0.695716   0.000000   0.000000   0.592508  -0.008754
   47  O  3 XY    0.000000  -0.676927  -0.483361   0.000000   0.000000
   48  O  3 XZ   -0.099866   0.000000   0.000000   0.265742  -0.608659
   49  O  3 YZ    0.000000  -0.250664  -0.535291   0.000000   0.000000

                     46
                    2.7105
                     B1  
    1  S  1  S    0.000000
    2  S  1  S    0.000000
    3  S  1  S    0.000000
    4  S  1  S    0.000000
    5  S  1  X   -0.179142
    6  S  1  Y    0.000000
    7  S  1  Z    0.000000
    8  S  1  X    0.833855
    9  S  1  Y    0.000000
   10  S  1  Z    0.000000
   11  S  1  X    0.394107
   12  S  1  Y    0.000000
   13  S  1  Z    0.000000
   14  S  1 XX    0.000000
   15  S  1 YY    0.000000
   16  S  1 ZZ    0.000000
   17  S  1 XY    0.000000
   18  S  1 XZ    0.675369
   19  S  1 YZ    0.000000
   20  O  2  S   -0.024498
   21  O  2  S   -0.526276
   22  O  2  S    1.021734
   23  O  2  X   -0.010404
   24  O  2  Y    0.000000
   25  O  2  Z    0.007704
   26  O  2  X    0.496763
   27  O  2  Y    0.000000
   28  O  2  Z   -0.369986
   29  O  2 XX    0.412010
   30  O  2 YY   -0.374450
   31  O  2 ZZ   -0.037560
   32  O  2 XY    0.000000
   33  O  2 XZ   -0.652265
   34  O  2 YZ    0.000000
   35  O  3  S    0.024498
   36  O  3  S    0.526276
   37  O  3  S   -1.021734
   38  O  3  X   -0.010404
   39  O  3  Y    0.000000
   40  O  3  Z   -0.007704
   41  O  3  X    0.496763
   42  O  3  Y    0.000000
   43  O  3  Z    0.369986
   44  O  3 XX   -0.412010
   45  O  3 YY    0.374450
   46  O  3 ZZ    0.037560
   47  O  3 XY    0.000000
   48  O  3 XZ   -0.652265
   49  O  3 YZ    0.000000
 ...... END OF RHF CALCULATION ......
 STEP CPU TIME =     3.84 TOTAL CPU TIME =        4.0 (    0.1 MIN)
 TOTAL WALL CLOCK TIME=        4.0 SECONDS, CPU UTILIZATION IS  99.75%

     ---------------------------------------------------------------------
     PROPERTIES FOR THE PBE      DFT FUNCTIONAL (RHF  TYPE) DENSITY MATRIX
     ---------------------------------------------------------------------

          -----------------
          ENERGY COMPONENTS
          -----------------

         WAVEFUNCTION NORMALIZATION =       1.0000000000

                ONE ELECTRON ENERGY =    -949.6755745599
                TWO ELECTRON ENERGY =     303.8425204932
           NUCLEAR REPULSION ENERGY =      97.5884826549
                                      ------------------
                       TOTAL ENERGY =    -548.2445714119

 ELECTRON-ELECTRON POTENTIAL ENERGY =     303.8425204932
  NUCLEUS-ELECTRON POTENTIAL ENERGY =   -1496.8112197458
   NUCLEUS-NUCLEUS POTENTIAL ENERGY =      97.5884826549
                                      ------------------
             TOTAL POTENTIAL ENERGY =   -1095.3802165978
               TOTAL KINETIC ENERGY =     547.1356451859
                 VIRIAL RATIO (V/T) =       2.0020267848

          ---------------------------------------
          MULLIKEN AND LOWDIN POPULATION ANALYSES
          ---------------------------------------

     ATOMIC MULLIKEN POPULATION IN EACH MOLECULAR ORBITAL

                      1          2          3          4          5

                  2.000000   2.000000   2.000000   2.000000   2.000000

    1             2.000007   0.001474   0.000837   2.000518   1.999917
    2            -0.000003   0.999263   0.999582  -0.000259   0.000042
    3            -0.000003   0.999263   0.999582  -0.000259   0.000042

                      6          7          8          9         10

                  2.000000   2.000000   2.000000   2.000000   2.000000

    1             2.000005   1.999898   0.636756   0.276330   1.143345
    2            -0.000002   0.000051   0.681622   0.861835   0.428328
    3            -0.000002   0.000051   0.681622   0.861835   0.428328

                     11         12         13         14         15

                  2.000000   2.000000   2.000000   2.000000   2.000000

    1             0.518098   0.949953   1.127861   0.062146   0.320812
    2             0.740951   0.525023   0.436069   0.968927   0.839594
    3             0.740951   0.525023   0.436069   0.968927   0.839594

                     16

                  2.000000

    1             0.120721
    2             0.939640
    3             0.939640

               ----- POPULATIONS IN EACH AO -----
                             MULLIKEN      LOWDIN
              1  S  1  S      2.00022     1.99590
              2  S  1  S      2.01009     1.97008
              3  S  1  S      0.99095     0.61233
              4  S  1  S      0.84039     0.54238
              5  S  1  X      1.99633     1.95318
              6  S  1  Y      1.99619     1.95556
              7  S  1  Z      1.99694     1.96022
              8  S  1  X      0.65841     0.59837
              9  S  1  Y      0.67804     0.64519
             10  S  1  Z      0.80279     0.77048
             11  S  1  X      0.16233     0.28925
             12  S  1  Y      0.44260     0.49159
             13  S  1  Z      0.28743     0.42706
             14  S  1 XX      0.05189     0.26700
             15  S  1 YY      0.07207     0.25129
             16  S  1 ZZ      0.06215     0.26123
             17  S  1 XY      0.09883     0.07318
             18  S  1 XZ      0.01103     0.12329
             19  S  1 YZ      0.00000     0.01059
             20  O  2  S      1.99803     1.98091
             21  O  2  S      0.84317     0.65985
             22  O  2  S      1.08957     0.58148
             23  O  2  X      0.91099     0.87077
             24  O  2  Y      0.83869     0.80494
             25  O  2  Z      1.01494     0.98335
             26  O  2  X      0.52717     0.60319
             27  O  2  Y      0.56159     0.60104
             28  O  2  Z      0.62035     0.68115
             29  O  2 XX      0.00271     0.20734
             30  O  2 YY      0.00344     0.20844
             31  O  2 ZZ      0.00309     0.20406
             32  O  2 XY      0.00530     0.00398
             33  O  2 XZ      0.00162     0.00843
             34  O  2 YZ      0.00000     0.00199
             35  O  3  S      1.99803     1.98091
             36  O  3  S      0.84317     0.65985
             37  O  3  S      1.08957     0.58148
             38  O  3  X      0.91099     0.87077
             39  O  3  Y      0.83869     0.80494
             40  O  3  Z      1.01494     0.98335
             41  O  3  X      0.52717     0.60319
             42  O  3  Y      0.56159     0.60104
             43  O  3  Z      0.62035     0.68115
             44  O  3 XX      0.00271     0.20734
             45  O  3 YY      0.00344     0.20844
             46  O  3 ZZ      0.00309     0.20406
             47  O  3 XY      0.00530     0.00398
             48  O  3 XZ      0.00162     0.00843
             49  O  3 YZ      0.00000     0.00199

          ----- MULLIKEN ATOMIC OVERLAP POPULATIONS -----
          (OFF-DIAGONAL ELEMENTS NEED TO BE MULTIPLIED BY 2)

             1           2           3

    1   14.5722748
    2    0.2932009   8.1696437
    3    0.2932009  -0.0421830   8.1696437

          TOTAL MULLIKEN AND LOWDIN ATOMIC POPULATIONS
       ATOM         MULL.POP.    CHARGE          LOW.POP.     CHARGE
    1 S            15.158677    0.841323        15.198181    0.801819
    2 O             8.420662   -0.420662         8.400910   -0.400910
    3 O             8.420662   -0.420662         8.400910   -0.400910

          MULLIKEN SPHERICAL HARMONIC POPULATIONS
       ATOM           S       P       D      F      G      H      I    TOTAL
    1 S             5.84    9.02    0.30   0.00   0.00   0.00   0.00   15.16
    2 O             3.93    4.47    0.02   0.00   0.00   0.00   0.00    8.42
    3 O             3.93    4.47    0.02   0.00   0.00   0.00   0.00    8.42

          -------------------------------
          BOND ORDER AND VALENCE ANALYSIS     BOND ORDER THRESHOLD=0.050
          -------------------------------

                   BOND                       BOND                       BOND
  ATOM PAIR DIST  ORDER      ATOM PAIR DIST  ORDER      ATOM PAIR DIST  ORDER
    1   2  1.600  1.705        1   3  1.600  1.705        2   3  2.621  0.375

                       TOTAL       BONDED        FREE
      ATOM            VALENCE     VALENCE     VALENCE
    1 S                 3.411       3.411       0.000
    2 O                 2.080       2.080       0.000
    3 O                 2.080       2.080       0.000

          ---------------------
          ELECTROSTATIC MOMENTS
          ---------------------

 POINT   1           X           Y           Z (BOHR)    CHARGE
                 0.000000    0.000000    0.000000        0.00 (A.U.)
         DX          DY          DZ         /D/  (DEBYE)
     0.000000    0.000000   -2.468084    2.468084
 ...... END OF PROPERTY EVALUATION ......
 STEP CPU TIME =     0.01 TOTAL CPU TIME =        4.0 (    0.1 MIN)
 TOTAL WALL CLOCK TIME=        4.0 SECONDS, CPU UTILIZATION IS  99.75%
               580000  WORDS OF DYNAMIC MEMORY USED
 EXECUTION OF GAMESS TERMINATED NORMALLY Thu Feb 26 00:18:00 2015
 DDI: 263624 bytes (0.3 MB / 0 MWords) used by master data server.

 ----------------------------------------
 CPU timing information for all processes
 ========================================
 0: 4.13 + 0.24 = 4.38
 ----------------------------------------
 ddikick.x: exited gracefully.
----- accounting info -----
Files used on the master node dftfe.crc.nd.edu were:
-rw-r--r-- 1 pmehta1 campus   37475 Feb 26 00:18 /tmp/gamess.dat
-rw-r--r-- 1 pmehta1 campus     142 Feb 26 00:17 /tmp/gamess.F05
-rw-r--r-- 1 pmehta1 campus 2160288 Feb 26 00:17 /tmp/gamess.F08
-rw-r--r-- 1 pmehta1 campus 1220440 Feb 26 00:18 /tmp/gamess.F10
Thu Feb 26 00:18:03 EST 2015
0.239u 0.180s 0:07.46 5.4%	0+0k 0+104io 0pf+0w
