   4   4   1   0
  0.1202255E+02  0.3636517E-09  0.3636517E-09  0.3636517E-09  0.3500000E-15
   1.0000000000000000E-004
  CAR 
 Au, FCC                                 
     13.30548481     -6.30785696  301      3.45388241      1.00000000
     -6.308  0.0000E+00  0.0000E+00  0.0000E+00  0.0000E+00  0.0000E+00  0.0000E+00  0.0000E+00  0.0000E+00  0.0000E+00
     -6.242  0.0000E+00  0.0000E+00  0.0000E+00  0.0000E+00  0.0000E+00  0.0000E+00  0.0000E+00  0.0000E+00  0.0000E+00
     -6.177  0.0000E+00  0.0000E+00  0.0000E+00  0.0000E+00  0.0000E+00  0.0000E+00  0.0000E+00  0.0000E+00  0.0000E+00
     -6.112  0.0000E+00  0.0000E+00  0.0000E+00  0.0000E+00  0.0000E+00  0.0000E+00  0.0000E+00  0.0000E+00  0.0000E+00
     -6.046  0.0000E+00  0.0000E+00  0.0000E+00  0.0000E+00  0.0000E+00  0.0000E+00  0.0000E+00  0.0000E+00  0.0000E+00
     -5.981  0.0000E+00  0.0000E+00  0.0000E+00  0.0000E+00  0.0000E+00  0.0000E+00  0.0000E+00  0.0000E+00  0.0000E+00
     -5.916  0.0000E+00  0.0000E+00  0.0000E+00  0.0000E+00  0.0000E+00  0.0000E+00  0.0000E+00  0.0000E+00  0.0000E+00
     -5.850  0.1418E-14  0.1053E-16  0.1053E-16  0.1053E-16  0.2632E-18  0.2632E-18  0.1198E-30  0.2632E-18  0.3556E-30
     -5.785  0.1255E-11  0.9324E-14  0.9324E-14  0.9324E-14  0.2330E-15  0.2330E-15  0.1060E-27  0.2330E-15  0.3148E-27
     -5.719  0.4811E-09  0.3573E-11  0.3573E-11  0.3573E-11  0.8928E-13  0.8928E-13  0.4064E-25  0.8928E-13  0.1206E-24
     -5.654  0.7999E-07  0.5940E-09  0.5940E-09  0.5940E-09  0.1484E-10  0.1484E-10  0.6756E-23  0.1484E-10  0.2006E-22
     -5.589  0.5800E-05  0.4307E-07  0.4307E-07  0.4307E-07  0.1076E-08  0.1076E-08  0.4899E-21  0.1076E-08  0.1454E-20
     -5.523  0.1845E-03  0.1370E-05  0.1370E-05  0.1370E-05  0.3424E-07  0.3424E-07  0.1558E-19  0.3424E-07  0.4627E-19
     -5.458  0.2594E-02  0.1927E-04  0.1927E-04  0.1927E-04  0.4814E-06  0.4814E-06  0.2191E-18  0.4814E-06  0.6506E-18
     -5.393  0.1625E-01  0.1206E-03  0.1206E-03  0.1206E-03  0.3015E-05  0.3015E-05  0.1372E-17  0.3015E-05  0.4074E-17
     -5.327  0.4562E-01  0.3388E-03  0.3388E-03  0.3388E-03  0.8466E-05  0.8466E-05  0.3854E-17  0.8466E-05  0.1144E-16
     -5.262  0.5773E-01  0.4287E-03  0.4287E-03  0.4287E-03  0.1071E-04  0.1071E-04  0.4876E-17  0.1071E-04  0.1448E-16
     -5.196  0.3295E-01  0.2447E-03  0.2447E-03  0.2447E-03  0.6115E-05  0.6115E-05  0.7159E-17  0.6115E-05  0.2139E-16
     -5.131  0.8461E-02  0.6284E-04  0.6284E-04  0.6284E-04  0.1570E-05  0.1570E-05  0.3806E-14  0.1570E-05  0.1142E-13
     -5.066  0.9718E-03  0.7217E-05  0.7217E-05  0.7217E-05  0.1803E-06  0.1803E-06  0.1430E-11  0.1803E-06  0.4290E-11
     -5.000  0.4981E-04  0.3699E-06  0.3699E-06  0.3853E-06  0.9683E-08  0.9265E-08  0.2332E-09  0.9683E-08  0.6996E-09
     -4.935  0.1899E-04  0.1412E-06  0.1412E-06  0.1235E-05  0.3488E-07  0.5083E-08  0.1658E-07  0.3488E-07  0.4975E-07
     -4.870  0.5579E-03  0.4150E-05  0.4150E-05  0.3830E-04  0.1082E-05  0.1522E-06  0.5176E-06  0.1082E-05  0.1553E-05
     -4.804  0.7696E-02  0.5725E-04  0.5725E-04  0.5284E-03  0.1493E-04  0.2100E-05  0.7141E-05  0.1493E-04  0.2142E-04
     -4.739  0.4730E-01  0.3519E-03  0.3519E-03  0.3247E-02  0.9175E-04  0.1290E-04  0.4389E-04  0.9175E-04  0.1317E-03
     -4.673  0.1304E+00  0.9699E-03  0.9699E-03  0.8951E-02  0.2529E-03  0.3557E-04  0.1210E-03  0.2529E-03  0.3629E-03
     -4.608  0.1620E+00  0.1205E-02  0.1205E-02  0.1112E-01  0.3141E-03  0.4418E-04  0.1503E-03  0.3141E-03  0.4508E-03
     -4.543  0.9074E-01  0.6750E-03  0.6750E-03  0.6229E-02  0.1760E-03  0.2475E-04  0.8419E-04  0.1760E-03  0.2526E-03
     -4.477  0.2287E-01  0.1701E-03  0.1701E-03  0.1570E-02  0.4436E-04  0.6239E-05  0.2122E-04  0.4436E-04  0.6366E-04
     -4.412  0.2578E-02  0.1918E-04  0.1917E-04  0.1770E-03  0.5000E-05  0.7032E-06  0.2392E-05  0.5000E-05  0.7175E-05
     -4.347  0.1308E-03  0.1085E-05  0.9723E-06  0.8979E-05  0.2880E-06  0.4055E-07  0.1266E-06  0.2555E-06  0.3590E-06
     -4.281  0.9176E-04  0.6138E-05  0.6559E-06  0.6312E-05  0.1855E-05  0.2625E-06  0.3437E-06  0.2672E-06  0.7912E-08
     -4.216  0.1910E-02  0.1314E-03  0.1363E-04  0.1314E-03  0.3972E-04  0.5621E-05  0.7326E-05  0.5621E-05  0.7631E-10
     -4.150  0.1820E-01  0.1252E-02  0.1299E-03  0.1252E-02  0.3785E-03  0.5356E-04  0.6981E-04  0.5356E-04  0.3202E-12
     -4.085  0.7750E-01  0.5331E-02  0.5532E-03  0.5331E-02  0.1612E-02  0.2281E-03  0.2973E-03  0.2281E-03  0.6100E-15
     -4.020  0.1484E+00  0.1021E-01  0.1059E-02  0.1021E-01  0.3086E-02  0.4367E-03  0.5692E-03  0.4367E-03  0.5527E-16
     -3.954  0.1282E+00  0.8817E-02  0.9149E-03  0.8817E-02  0.2666E-02  0.3772E-03  0.4916E-03  0.3772E-03  0.1410E-14
     -3.889  0.4989E-01  0.3432E-02  0.3561E-03  0.3432E-02  0.1038E-02  0.1468E-03  0.1914E-03  0.1468E-03  0.9262E-12
     -3.824  0.8715E-02  0.5995E-03  0.6221E-04  0.5995E-03  0.1813E-03  0.2565E-04  0.3343E-04  0.2565E-04  0.2723E-09
     -3.758  0.6808E-03  0.4678E-04  0.4940E-05  0.4693E-04  0.1416E-04  0.2042E-05  0.2615E-05  0.2047E-05  0.3479E-07
     -3.693  0.1254E-03  0.5620E-05  0.4179E-05  0.1445E-04  0.2642E-05  0.1916E-05  0.7369E-06  0.2225E-05  0.1942E-05
     -3.627  0.2140E-02  0.7477E-04  0.7475E-04  0.2915E-03  0.4118E-04  0.3358E-04  0.1589E-04  0.4117E-04  0.4766E-04
     -3.562  0.2038E-01  0.6244E-03  0.6244E-03  0.2981E-02  0.3543E-03  0.2717E-03  0.1727E-03  0.3543E-03  0.5182E-03
     -3.497  0.8864E-01  0.2360E-02  0.2360E-02  0.1380E-01  0.1388E-02  0.9871E-03  0.8385E-03  0.1388E-02  0.2516E-02
     -3.431  0.1768E+00  0.4071E-02  0.4071E-02  0.2902E-01  0.2494E-02  0.1619E-02  0.1829E-02  0.2494E-02  0.5486E-02
     -3.366  0.1619E+00  0.3219E-02  0.3219E-02  0.2775E-01  0.2064E-02  0.1204E-02  0.1798E-02  0.2064E-02  0.5395E-02
     -3.300  0.6780E-01  0.1168E-02  0.1168E-02  0.1205E-01  0.7869E-03  0.4056E-03  0.7975E-03  0.7869E-03  0.2392E-02
     -3.235  0.1292E-01  0.1943E-03  0.1943E-03  0.2361E-02  0.1377E-03  0.6173E-04  0.1588E-03  0.1377E-03  0.4765E-03
     -3.170  0.1123E-02  0.1570E-04  0.1481E-04  0.2101E-03  0.1216E-04  0.4337E-05  0.1445E-04  0.1115E-04  0.4268E-04
     -3.104  0.5497E-03  0.3585E-04  0.3708E-05  0.1103E-03  0.4310E-04  0.4165E-05  0.1252E-04  0.6561E-05  0.1371E-04
     -3.039  0.8079E-02  0.5630E-03  0.5103E-04  0.1629E-02  0.6802E-03  0.6428E-04  0.1906E-03  0.9821E-04  0.1919E-03
     -2.974  0.5724E-01  0.3989E-02  0.3615E-03  0.1154E-01  0.4819E-02  0.4554E-03  0.1350E-02  0.6958E-03  0.1359E-02
     -2.908  0.1817E+00  0.1266E-01  0.1148E-02  0.3663E-01  0.1530E-01  0.1446E-02  0.4287E-02  0.2209E-02  0.4315E-02
     -2.843  0.2598E+00  0.1810E-01  0.1641E-02  0.5237E-01  0.2187E-01  0.2067E-02  0.6129E-02  0.3158E-02  0.6169E-02
     -2.777  0.1675E+00  0.1168E-01  0.1058E-02  0.3377E-01  0.1411E-01  0.1333E-02  0.3953E-02  0.2037E-02  0.3978E-02
     -2.712  0.4865E-01  0.3391E-02  0.3080E-03  0.9808E-02  0.4097E-02  0.3884E-03  0.1148E-02  0.5934E-03  0.1155E-02
     -2.647  0.6777E-02  0.4656E-03  0.6492E-04  0.1359E-02  0.5944E-03  0.9141E-04  0.1526E-03  0.1389E-03  0.1605E-03
     -2.581  0.6381E-02  0.3560E-03  0.3329E-03  0.1191E-02  0.8519E-03  0.5468E-03  0.5412E-04  0.8256E-03  0.1452E-03
     -2.516  0.3548E-01  0.1950E-02  0.1949E-02  0.6588E-02  0.4843E-02  0.3207E-02  0.2685E-03  0.4842E-02  0.8051E-03
     -2.451  0.9384E-01  0.5157E-02  0.5157E-02  0.1742E-01  0.1281E-01  0.8484E-02  0.7098E-03  0.1281E-01  0.2129E-02
     -2.385  0.1119E+00  0.6149E-02  0.6149E-02  0.2077E-01  0.1527E-01  0.1012E-01  0.8463E-03  0.1527E-01  0.2539E-02
     -2.320  0.6017E-01  0.3307E-02  0.3307E-02  0.1117E-01  0.8213E-02  0.5440E-02  0.4551E-03  0.8213E-02  0.1365E-02
     -2.254  0.1456E-01  0.7998E-03  0.7998E-03  0.2705E-02  0.1987E-02  0.1316E-02  0.1113E-03  0.1987E-02  0.3338E-03
     -2.189  0.1841E-02  0.9208E-04  0.8871E-04  0.3958E-03  0.2266E-03  0.1439E-03  0.5228E-04  0.2208E-03  0.1538E-03
     -2.124  0.4248E-02  0.1339E-03  0.3791E-04  0.1586E-02  0.2727E-03  0.3990E-04  0.6083E-03  0.1084E-03  0.1739E-02
     -2.058  0.3023E-01  0.1441E-02  0.2299E-03  0.1088E-01  0.2829E-02  0.3302E-03  0.4152E-02  0.7561E-03  0.1138E-01
     -1.993  0.1051E+00  0.7545E-02  0.7245E-03  0.3526E-01  0.1454E-01  0.1624E-02  0.1315E-01  0.2874E-02  0.3340E-01
     -1.928  0.1812E+00  0.1846E-01  0.1109E-02  0.5511E-01  0.3553E-01  0.4208E-02  0.1985E-01  0.5861E-02  0.4416E-01
     -1.862  0.1658E+00  0.2201E-01  0.1047E-02  0.4388E-01  0.4513E-01  0.8431E-02  0.1484E-01  0.9417E-02  0.2635E-01
     -1.797  0.1121E+00  0.1685E-01  0.1313E-02  0.2274E-01  0.4545E-01  0.1923E-01  0.6352E-02  0.1949E-01  0.7105E-02
     -1.731  0.9724E-01  0.1395E-01  0.1870E-02  0.1525E-01  0.5056E-01  0.3082E-01  0.3092E-02  0.3083E-01  0.1588E-02
     -1.666  0.8503E-01  0.1074E-01  0.1566E-02  0.1675E-01  0.4241E-01  0.2602E-01  0.5110E-02  0.2582E-01  0.7372E-02
     -1.601  0.1084E+00  0.9750E-02  0.1165E-02  0.3620E-01  0.4055E-01  0.1927E-01  0.1661E-01  0.1837E-01  0.3247E-01
     -1.535  0.1775E+00  0.1367E-01  0.1559E-02  0.6653E-01  0.6084E-01  0.2647E-01  0.3222E-01  0.2463E-01  0.6483E-01
     -1.470  0.1662E+00  0.1221E-01  0.1696E-02  0.6163E-01  0.5958E-01  0.2977E-01  0.2950E-01  0.2763E-01  0.6011E-01
     -1.405  0.9813E-01  0.5926E-02  0.1679E-02  0.3499E-01  0.4116E-01  0.3139E-01  0.1496E-01  0.2824E-01  0.3336E-01
     -1.339  0.8701E-01  0.3196E-02  0.2393E-02  0.2778E-01  0.5175E-01  0.5466E-01  0.1036E-01  0.4932E-01  0.2875E-01
     -1.274  0.1019E+00  0.3269E-02  0.2731E-02  0.2618E-01  0.8495E-01  0.8850E-01  0.1843E-01  0.8354E-01  0.5174E-01
     -1.208  0.1129E+00  0.5481E-02  0.2234E-02  0.2380E-01  0.1154E+00  0.1093E+00  0.5020E-01  0.1071E+00  0.1213E+00
     -1.143  0.1367E+00  0.1177E-01  0.1717E-02  0.2775E-01  0.1490E+00  0.1237E+00  0.1097E+00  0.1232E+00  0.2059E+00
     -1.078  0.1405E+00  0.1711E-01  0.1388E-02  0.2657E-01  0.1653E+00  0.1224E+00  0.1514E+00  0.1223E+00  0.2142E+00
     -1.012  0.1182E+00  0.2211E-01  0.1179E-02  0.2487E-01  0.1565E+00  0.8461E-01  0.1273E+00  0.8463E-01  0.1480E+00
     -0.947  0.1453E+00  0.3879E-01  0.1828E-02  0.3960E-01  0.2186E+00  0.7310E-01  0.1159E+00  0.7357E-01  0.1334E+00
     -0.881  0.1869E+00  0.5165E-01  0.3427E-02  0.5404E-01  0.2772E+00  0.9423E-01  0.2400E+00  0.9676E-01  0.2700E+00
     -0.816  0.1559E+00  0.4058E-01  0.4664E-02  0.4594E-01  0.2078E+00  0.8972E-01  0.4209E+00  0.9685E-01  0.4102E+00
     -0.751  0.9437E-01  0.2147E-01  0.6316E-02  0.2605E-01  0.1526E+00  0.9633E-01  0.4114E+00  0.1159E+00  0.3389E+00
     -0.685  0.6794E-01  0.1344E-01  0.9935E-02  0.1133E-01  0.2484E+00  0.1597E+00  0.2664E+00  0.2183E+00  0.1638E+00
     -0.620  0.7081E-01  0.1508E-01  0.1336E-01  0.6601E-02  0.4042E+00  0.2223E+00  0.2301E+00  0.3183E+00  0.6098E-01
     -0.555  0.6852E-01  0.1979E-01  0.1284E-01  0.1301E-01  0.4974E+00  0.2751E+00  0.2781E+00  0.3328E+00  0.5162E-01
     -0.489  0.5977E-01  0.2896E-01  0.1121E-01  0.2965E-01  0.5633E+00  0.3429E+00  0.3936E+00  0.3732E+00  0.1393E+00
     -0.424  0.5589E-01  0.4037E-01  0.1174E-01  0.4322E-01  0.5846E+00  0.3401E+00  0.5520E+00  0.4277E+00  0.2549E+00
     -0.358  0.5006E-01  0.4282E-01  0.1407E-01  0.3856E-01  0.6222E+00  0.3396E+00  0.5182E+00  0.4270E+00  0.2353E+00
     -0.293  0.3679E-01  0.3384E-01  0.1492E-01  0.2457E-01  0.6380E+00  0.3857E+00  0.3738E+00  0.3558E+00  0.1219E+00
     -0.228  0.2049E-01  0.3000E-01  0.1530E-01  0.2371E-01  0.4980E+00  0.4480E+00  0.3886E+00  0.2744E+00  0.8240E-01
     -0.162  0.9759E-02  0.3652E-01  0.2554E-01  0.3356E-01  0.4180E+00  0.5689E+00  0.5103E+00  0.3886E+00  0.1193E+00
     -0.097  0.6033E-02  0.3255E-01  0.3837E-01  0.3191E-01  0.3786E+00  0.6595E+00  0.4679E+00  0.5661E+00  0.1381E+00
     -0.032  0.3699E-02  0.1789E-01  0.3472E-01  0.2338E-01  0.2189E+00  0.5367E+00  0.3705E+00  0.4808E+00  0.1324E+00
      0.034  0.2716E-02  0.1398E-01  0.2514E-01  0.2534E-01  0.8372E-01  0.4040E+00  0.4693E+00  0.2732E+00  0.1576E+00
      0.099  0.5826E-02  0.2314E-01  0.3209E-01  0.3250E-01  0.5897E-01  0.7172E+00  0.6052E+00  0.2887E+00  0.1840E+00
      0.165  0.1150E-01  0.3122E-01  0.4439E-01  0.2970E-01  0.1210E+00  0.1144E+01  0.5128E+00  0.4557E+00  0.1516E+00
      0.230  0.1647E-01  0.3322E-01  0.3999E-01  0.1907E-01  0.3111E+00  0.9888E+00  0.4068E+00  0.5011E+00  0.9457E-01
      0.295  0.1957E-01  0.3633E-01  0.3459E-01  0.1523E-01  0.5618E+00  0.6469E+00  0.5673E+00  0.5028E+00  0.9618E-01
      0.361  0.1845E-01  0.4043E-01  0.5173E-01  0.1955E-01  0.6908E+00  0.7023E+00  0.7328E+00  0.6955E+00  0.1686E+00
      0.426  0.1418E-01  0.4138E-01  0.7305E-01  0.1984E-01  0.6930E+00  0.7728E+00  0.6229E+00  0.9341E+00  0.2263E+00
      0.491  0.1307E-01  0.3486E-01  0.6520E-01  0.1726E-01  0.6698E+00  0.5626E+00  0.4632E+00  0.8681E+00  0.2685E+00
      0.557  0.2014E-01  0.3141E-01  0.4385E-01  0.2344E-01  0.8060E+00  0.3946E+00  0.5424E+00  0.6706E+00  0.3652E+00
      0.622  0.3056E-01  0.3911E-01  0.4079E-01  0.3597E-01  0.9987E+00  0.4623E+00  0.7110E+00  0.6500E+00  0.4603E+00
      0.688  0.3923E-01  0.5100E-01  0.4996E-01  0.4831E-01  0.1110E+01  0.6276E+00  0.7420E+00  0.7325E+00  0.5685E+00
      0.753  0.4162E-01  0.5539E-01  0.5001E-01  0.5295E-01  0.1329E+01  0.6736E+00  0.6810E+00  0.8342E+00  0.6606E+00
      0.818  0.3640E-01  0.4686E-01  0.4365E-01  0.4745E-01  0.1422E+01  0.6440E+00  0.5979E+00  0.9705E+00  0.7080E+00
      0.884  0.2875E-01  0.2972E-01  0.3852E-01  0.3654E-01  0.1007E+01  0.6120E+00  0.4866E+00  0.9841E+00  0.8291E+00
      0.949  0.1990E-01  0.1309E-01  0.2414E-01  0.2240E-01  0.4916E+00  0.4425E+00  0.3577E+00  0.8031E+00  0.8523E+00
      1.014  0.9655E-02  0.6712E-02  0.1104E-01  0.9779E-02  0.3211E+00  0.2803E+00  0.2836E+00  0.7062E+00  0.7693E+00
      1.080  0.4119E-02  0.1233E-01  0.1223E-01  0.4137E-02  0.3469E+00  0.2723E+00  0.2691E+00  0.6613E+00  0.8357E+00
      1.145  0.4419E-02  0.2304E-01  0.2067E-01  0.4258E-02  0.3671E+00  0.2969E+00  0.2706E+00  0.5706E+00  0.1041E+01
      1.211  0.6195E-02  0.2351E-01  0.2049E-01  0.6321E-02  0.3279E+00  0.2492E+00  0.3017E+00  0.5346E+00  0.1200E+01
      1.276  0.8740E-02  0.1746E-01  0.1436E-01  0.1161E-01  0.2940E+00  0.2348E+00  0.4188E+00  0.6258E+00  0.1552E+01
      1.341  0.1218E-01  0.2045E-01  0.1539E-01  0.2179E-01  0.3205E+00  0.3169E+00  0.5558E+00  0.7461E+00  0.2021E+01
      1.407  0.1575E-01  0.2293E-01  0.1662E-01  0.3082E-01  0.3348E+00  0.3254E+00  0.6497E+00  0.6686E+00  0.1962E+01
      1.472  0.1719E-01  0.1466E-01  0.1016E-01  0.3021E-01  0.2746E+00  0.2282E+00  0.7205E+00  0.4522E+00  0.1501E+01
      1.537  0.1238E-01  0.7124E-02  0.4201E-02  0.2011E-01  0.1855E+00  0.2528E+00  0.8163E+00  0.3755E+00  0.1119E+01
      1.603  0.8108E-02  0.6220E-02  0.3822E-02  0.1242E-01  0.1549E+00  0.4224E+00  0.9163E+00  0.5433E+00  0.9298E+00
      1.668  0.1354E-01  0.9445E-02  0.8410E-02  0.1669E-01  0.2098E+00  0.5172E+00  0.9439E+00  0.8035E+00  0.9989E+00
      1.734  0.2541E-01  0.1578E-01  0.1599E-01  0.2863E-01  0.3252E+00  0.4761E+00  0.8883E+00  0.8937E+00  0.1084E+01
      1.799  0.2881E-01  0.1819E-01  0.1830E-01  0.3128E-01  0.4545E+00  0.6117E+00  0.8264E+00  0.7729E+00  0.8643E+00
      1.864  0.2128E-01  0.1375E-01  0.1321E-01  0.2112E-01  0.5907E+00  0.1254E+01  0.9384E+00  0.7977E+00  0.7445E+00
      1.930  0.1283E-01  0.8006E-02  0.7414E-02  0.1063E-01  0.6670E+00  0.1852E+01  0.1047E+01  0.9879E+00  0.8480E+00
      1.995  0.5761E-02  0.3605E-02  0.3493E-02  0.4147E-02  0.6066E+00  0.1853E+01  0.8641E+00  0.9541E+00  0.7462E+00
      2.061  0.1806E-02  0.1411E-02  0.1435E-02  0.1173E-02  0.4516E+00  0.1703E+01  0.4962E+00  0.6353E+00  0.4285E+00
      2.126  0.2070E-02  0.1444E-02  0.9411E-03  0.1112E-02  0.2839E+00  0.1333E+01  0.2038E+00  0.3098E+00  0.1644E+00
      2.191  0.6527E-02  0.3690E-02  0.1660E-02  0.3539E-02  0.1895E+00  0.6107E+00  0.1118E+00  0.1122E+00  0.4245E-01
      2.257  0.1169E-01  0.6185E-02  0.2530E-02  0.6271E-02  0.1735E+00  0.1375E+00  0.1264E+00  0.2645E-01  0.7052E-02
      2.322  0.1530E-01  0.6388E-02  0.2037E-02  0.7814E-02  0.1714E+00  0.1529E-01  0.1318E+00  0.4603E-02  0.1873E-02
      2.387  0.2952E-01  0.7977E-02  0.1253E-02  0.1558E-01  0.2569E+00  0.1790E-02  0.1827E+00  0.3461E-02  0.6560E-02
      2.453  0.5055E-01  0.1100E-01  0.1311E-02  0.2922E-01  0.3983E+00  0.1786E-02  0.2640E+00  0.7254E-02  0.1588E-01
      2.518  0.4787E-01  0.9373E-02  0.1518E-02  0.2996E-01  0.3531E+00  0.2201E-02  0.2216E+00  0.1183E-01  0.2057E-01
      2.584  0.2963E-01  0.5784E-02  0.2588E-02  0.2100E-01  0.1743E+00  0.3205E-02  0.9867E-01  0.2747E-01  0.2830E-01
      2.649  0.2592E-01  0.5654E-02  0.5026E-02  0.2130E-01  0.8719E-01  0.5775E-02  0.3424E-01  0.5728E-01  0.4939E-01
      2.714  0.2348E-01  0.5301E-02  0.5243E-02  0.1998E-01  0.6300E-01  0.5967E-02  0.1859E-01  0.6019E-01  0.5084E-01
      2.780  0.1163E-01  0.2524E-02  0.2521E-02  0.1029E-01  0.2946E-01  0.2856E-02  0.8376E-02  0.2934E-01  0.2492E-01
      2.845  0.7476E-02  0.6489E-03  0.6489E-03  0.9803E-02  0.1102E-01  0.6328E-03  0.3684E-02  0.1102E-01  0.1105E-01
      2.910  0.2116E-01  0.4964E-03  0.4964E-03  0.3212E-01  0.2036E-01  0.1332E-03  0.8132E-02  0.2036E-01  0.2439E-01
      2.976  0.3868E-01  0.8232E-03  0.8232E-03  0.5900E-01  0.3654E-01  0.1394E-03  0.1472E-01  0.3654E-01  0.4417E-01
      3.041  0.3223E-01  0.6844E-03  0.6844E-03  0.4917E-01  0.3043E-01  0.1141E-03  0.1227E-01  0.3043E-01  0.3679E-01
      3.107  0.1212E-01  0.2643E-03  0.2597E-03  0.1847E-01  0.1147E-01  0.4404E-04  0.4627E-02  0.1143E-01  0.1382E-01
      3.172  0.2406E-02  0.2917E-03  0.1419E-03  0.3360E-02  0.3172E-02  0.5199E-04  0.1451E-02  0.1971E-02  0.2435E-02
      3.237  0.5420E-02  0.3778E-02  0.1634E-02  0.4009E-02  0.1802E-01  0.7425E-03  0.9811E-02  0.8866E-03  0.1841E-02
      3.303  0.3387E-01  0.2580E-01  0.1207E-01  0.2581E-01  0.1148E+00  0.5504E-02  0.6316E-01  0.5508E-02  0.1172E-01
      3.368  0.9818E-01  0.7988E-01  0.4030E-01  0.7988E-01  0.3325E+00  0.1840E-01  0.1846E+00  0.1840E-01  0.3728E-01
      3.433  0.1290E+00  0.1125E+00  0.6091E-01  0.1125E+00  0.4361E+00  0.2785E-01  0.2447E+00  0.2785E-01  0.5390E-01
      3.499  0.7687E-01  0.7228E-01  0.4176E-01  0.7228E-01  0.2595E+00  0.1912E-01  0.1474E+00  0.1912E-01  0.3547E-01
      3.564  0.2075E-01  0.2111E-01  0.1296E-01  0.2111E-01  0.6993E-01  0.5941E-02  0.4029E-01  0.5941E-02  0.1060E-01
      3.630  0.2523E-02  0.2789E-02  0.1811E-02  0.2789E-02  0.8486E-02  0.8310E-03  0.4968E-02  0.8310E-03  0.1430E-02
      3.695  0.1523E-03  0.1765E-03  0.1134E-03  0.1765E-03  0.4891E-03  0.5338E-04  0.2835E-03  0.5338E-04  0.9529E-04
      3.760  0.4241E-03  0.3110E-03  0.1241E-04  0.3110E-03  0.8084E-03  0.4156E-04  0.2535E-03  0.4156E-04  0.2497E-03
      3.826  0.5201E-02  0.3790E-02  0.1147E-03  0.3790E-02  0.9854E-02  0.4959E-03  0.3050E-02  0.4959E-03  0.3057E-02
      3.891  0.2866E-01  0.2088E-01  0.6320E-03  0.2088E-01  0.5431E-01  0.2733E-02  0.1681E-01  0.2733E-02  0.1685E-01
      3.956  0.7091E-01  0.5166E-01  0.1564E-02  0.5166E-01  0.1343E+00  0.6761E-02  0.4158E-01  0.6761E-02  0.4168E-01
      4.022  0.7907E-01  0.5761E-01  0.1744E-02  0.5761E-01  0.1498E+00  0.7539E-02  0.4637E-01  0.7539E-02  0.4647E-01
      4.087  0.3977E-01  0.2897E-01  0.8769E-03  0.2897E-01  0.7534E-01  0.3791E-02  0.2332E-01  0.3791E-02  0.2337E-01
      4.153  0.8990E-02  0.6551E-02  0.1982E-03  0.6551E-02  0.1703E-01  0.8572E-03  0.5272E-02  0.8572E-03  0.5284E-02
      4.218  0.9081E-03  0.6617E-03  0.2003E-04  0.6617E-03  0.1721E-02  0.8659E-04  0.5325E-03  0.8659E-04  0.5338E-03
      4.283  0.4127E-04  0.3003E-04  0.1290E-05  0.3003E-04  0.7749E-04  0.4291E-05  0.2421E-04  0.4291E-05  0.2426E-04
      4.349  0.2798E-04  0.1883E-04  0.1819E-04  0.1883E-04  0.2082E-04  0.1904E-04  0.1713E-04  0.1904E-04  0.1683E-04
      4.414  0.5532E-03  0.3779E-03  0.3743E-03  0.3779E-03  0.4030E-03  0.3843E-03  0.3479E-03  0.3843E-03  0.3314E-03
      4.479  0.5039E-02  0.3598E-02  0.3511E-02  0.3598E-02  0.3908E-02  0.3460E-02  0.3374E-02  0.3460E-02  0.2980E-02
      4.545  0.2094E-01  0.1658E-01  0.1565E-01  0.1658E-01  0.1873E-01  0.1397E-01  0.1616E-01  0.1397E-01  0.1198E-01
      4.610  0.4121E-01  0.3999E-01  0.3557E-01  0.3999E-01  0.4826E-01  0.2554E-01  0.4156E-01  0.2554E-01  0.2166E-01
      4.676  0.4220E-01  0.5477E-01  0.4450E-01  0.5477E-01  0.7265E-01  0.2143E-01  0.6139E-01  0.2143E-01  0.1767E-01
      4.741  0.3348E-01  0.4720E-01  0.3173E-01  0.4720E-01  0.7649E-01  0.8452E-02  0.5757E-01  0.8452E-02  0.6493E-02
      4.806  0.4179E-01  0.3654E-01  0.1341E-01  0.3654E-01  0.8646E-01  0.1655E-02  0.4989E-01  0.1655E-02  0.1071E-02
      4.872  0.4784E-01  0.3091E-01  0.4673E-02  0.3091E-01  0.8986E-01  0.2055E-03  0.4490E-01  0.2055E-03  0.9580E-04
      4.937  0.2857E-01  0.1861E-01  0.3360E-02  0.1861E-01  0.5176E-01  0.3036E-03  0.2523E-01  0.3036E-03  0.2609E-03
      5.003  0.1166E-01  0.1598E-01  0.1190E-01  0.1598E-01  0.1562E-01  0.1901E-02  0.8357E-02  0.1901E-02  0.1731E-02
      5.068  0.1352E-01  0.3514E-01  0.3457E-01  0.3508E-01  0.7446E-02  0.5699E-02  0.6025E-02  0.5696E-02  0.5211E-02
      5.133  0.1838E-01  0.4835E-01  0.4673E-01  0.4712E-01  0.9937E-02  0.7759E-02  0.7839E-02  0.7704E-02  0.7386E-02
      5.199  0.2257E-01  0.4327E-01  0.2896E-01  0.3220E-01  0.2403E-01  0.5221E-02  0.1126E-01  0.4728E-02  0.7563E-02
      5.264  0.5197E-01  0.6734E-01  0.9801E-02  0.2284E-01  0.7903E-01  0.3403E-02  0.2924E-01  0.1423E-02  0.1437E-01
      5.329  0.8936E-01  0.1090E+00  0.4954E-02  0.2841E-01  0.1410E+00  0.4060E-02  0.5123E-01  0.6338E-03  0.2414E-01
      5.395  0.7445E-01  0.9307E-01  0.8136E-02  0.2569E-01  0.1177E+00  0.4139E-02  0.4559E-01  0.3194E-02  0.2104E-01
      5.460  0.3703E-01  0.6009E-01  0.2886E-01  0.2683E-01  0.5830E-01  0.6596E-02  0.3768E-01  0.1618E-01  0.1550E-01
      5.526  0.2941E-01  0.7231E-01  0.6716E-01  0.4636E-01  0.4579E-01  0.1333E-01  0.5666E-01  0.3884E-01  0.2129E-01
      5.591  0.2750E-01  0.7318E-01  0.7280E-01  0.4902E-01  0.4271E-01  0.1429E-01  0.5902E-01  0.4220E-01  0.2194E-01
      5.656  0.1333E-01  0.3568E-01  0.3567E-01  0.2398E-01  0.2070E-01  0.6997E-02  0.2884E-01  0.2068E-01  0.1071E-01
      5.722  0.2934E-02  0.7857E-02  0.7857E-02  0.5281E-02  0.4555E-02  0.1541E-02  0.6351E-02  0.4555E-02  0.2359E-02
      5.787  0.2887E-03  0.7731E-03  0.7731E-03  0.5196E-03  0.4482E-03  0.1516E-03  0.6249E-03  0.4482E-03  0.2321E-03
      5.852  0.1259E-04  0.3372E-04  0.3372E-04  0.2266E-04  0.1955E-04  0.6614E-05  0.2726E-04  0.1955E-04  0.1013E-04
      5.918  0.2490E-06  0.6707E-06  0.6707E-06  0.4357E-06  0.3837E-06  0.1290E-06  0.5269E-06  0.3837E-06  0.1962E-06
      5.983  0.7408E-06  0.2386E-05  0.2386E-05  0.8150E-07  0.8638E-06  0.2069E-06  0.3773E-06  0.8638E-06  0.1854E-06
      6.049  0.3272E-04  0.1054E-03  0.1054E-03  0.3448E-05  0.3811E-04  0.9117E-05  0.1651E-04  0.3811E-04  0.8140E-05
      6.114  0.6385E-03  0.2058E-02  0.2058E-02  0.6728E-04  0.7438E-03  0.1779E-03  0.3222E-03  0.7438E-03  0.1588E-03
      6.179  0.5532E-02  0.1783E-01  0.1783E-01  0.5829E-03  0.6444E-02  0.1541E-02  0.2792E-02  0.6444E-02  0.1376E-02
      6.245  0.2144E-01  0.6909E-01  0.6909E-01  0.2259E-02  0.2497E-01  0.5974E-02  0.1082E-01  0.2497E-01  0.5334E-02
      6.310  0.3738E-01  0.1205E+00  0.1205E+00  0.3939E-02  0.4355E-01  0.1042E-01  0.1887E-01  0.4355E-01  0.9300E-02
      6.375  0.2940E-01  0.9475E-01  0.9475E-01  0.3098E-02  0.3425E-01  0.8192E-02  0.1484E-01  0.3425E-01  0.7314E-02
      6.441  0.1042E-01  0.3358E-01  0.3358E-01  0.1098E-02  0.1214E-01  0.2903E-02  0.5258E-02  0.1214E-01  0.2592E-02
      6.506  0.1656E-02  0.5336E-02  0.5336E-02  0.1745E-03  0.1929E-02  0.4613E-03  0.8356E-03  0.1929E-02  0.4119E-03
      6.572  0.1172E-03  0.3776E-03  0.3776E-03  0.1235E-04  0.1365E-03  0.3265E-04  0.5914E-04  0.1365E-03  0.2915E-04
      6.637  0.3669E-05  0.1182E-04  0.1181E-04  0.3896E-06  0.4275E-05  0.1021E-05  0.1853E-05  0.4270E-05  0.9121E-06
      6.702  0.4981E-06  0.8757E-06  0.2780E-06  0.4254E-06  0.7605E-06  0.1405E-07  0.3875E-06  0.7292E-07  0.5377E-07
      6.768  0.2435E-04  0.3881E-04  0.6305E-05  0.2285E-04  0.3817E-04  0.2088E-08  0.1969E-04  0.7797E-06  0.2244E-05
      6.833  0.5825E-03  0.9281E-03  0.1508E-03  0.5464E-03  0.9129E-03  0.5235E-07  0.4710E-03  0.1864E-04  0.5366E-04
      6.898  0.6174E-02  0.9838E-02  0.1600E-02  0.5792E-02  0.9676E-02  0.1006E-05  0.4992E-02  0.1981E-03  0.5688E-03
      6.964  0.2923E-01  0.4656E-01  0.7656E-02  0.2742E-01  0.4579E-01  0.2488E-04  0.2364E-01  0.9576E-03  0.2692E-02
      7.029  0.6238E-01  0.9910E-01  0.1789E-01  0.5838E-01  0.9740E-01  0.4484E-03  0.5054E-01  0.2432E-02  0.5725E-02
      7.095  0.6172E-01  0.9572E-01  0.3122E-01  0.5667E-01  0.9347E-01  0.3883E-02  0.5075E-01  0.5785E-02  0.5490E-02
      7.160  0.3409E-01  0.4405E-01  0.6845E-01  0.2716E-01  0.4067E-01  0.1517E-01  0.3087E-01  0.1599E-01  0.2374E-02
      7.225  0.1966E-01  0.1324E-01  0.1100E+00  0.9958E-02  0.8350E-02  0.2670E-01  0.2171E-01  0.2686E-01  0.4609E-03
      7.291  0.1207E-01  0.4870E-02  0.8643E-01  0.4586E-02  0.1083E-02  0.2120E-01  0.1437E-01  0.2121E-01  0.3993E-04
      7.356  0.4184E-02  0.1522E-02  0.3088E-01  0.1511E-02  0.1712E-03  0.7582E-02  0.5029E-02  0.7583E-02  0.1536E-05
      7.421  0.8655E-03  0.2474E-03  0.4958E-02  0.2445E-03  0.4781E-04  0.1245E-02  0.8048E-03  0.1272E-02  0.1751E-06
      7.487  0.3283E-02  0.1344E-03  0.4371E-03  0.9002E-04  0.3978E-03  0.5506E-03  0.5849E-04  0.9959E-03  0.2445E-05
      7.552  0.2356E-01  0.8542E-03  0.6174E-03  0.5313E-03  0.2885E-02  0.3380E-02  0.9151E-05  0.6623E-02  0.1780E-04
      7.618  0.7685E-01  0.2785E-02  0.1978E-02  0.1732E-02  0.9411E-02  0.1102E-01  0.2399E-04  0.2160E-01  0.5807E-04
      7.683  0.1130E+00  0.4093E-02  0.2925E-02  0.2544E-02  0.1384E-01  0.1621E-01  0.3727E-04  0.3175E-01  0.8546E-04
      7.748  0.7643E-01  0.2800E-02  0.2387E-02  0.1705E-02  0.9551E-02  0.1123E-01  0.7724E-04  0.2156E-01  0.6390E-04
      7.814  0.3749E-01  0.2532E-02  0.5695E-02  0.8270E-03  0.6736E-02  0.7847E-02  0.7041E-03  0.1165E-01  0.1652E-03
      7.879  0.6786E-01  0.1518E-01  0.2899E-01  0.2652E-02  0.2055E-01  0.1970E-01  0.4664E-02  0.2662E-01  0.1326E-02
      7.945  0.1312E+00  0.5956E-01  0.8494E-01  0.9757E-02  0.5235E-01  0.3667E-01  0.1578E-01  0.6264E-01  0.5282E-02
      8.010  0.1302E+00  0.1064E+00  0.1274E+00  0.1706E-01  0.7078E-01  0.3267E-01  0.2600E-01  0.7926E-01  0.9480E-02
      8.075  0.6897E-01  0.8644E-01  0.9426E-01  0.1392E-01  0.4951E-01  0.1461E-01  0.2024E-01  0.5267E-01  0.7695E-02
      8.141  0.4428E-01  0.3546E-01  0.3677E-01  0.7620E-02  0.2454E-01  0.7936E-02  0.7771E-02  0.2507E-01  0.2994E-02
      8.206  0.1114E+00  0.2189E-01  0.2199E-01  0.1169E-01  0.3615E-01  0.2021E-01  0.3436E-02  0.3619E-01  0.1252E-02
      8.271  0.1994E+00  0.3102E-01  0.3103E-01  0.1996E-01  0.6161E-01  0.3634E-01  0.4229E-02  0.6161E-01  0.1486E-02
      8.337  0.1643E+00  0.2529E-01  0.2529E-01  0.1642E-01  0.5066E-01  0.2995E-01  0.3420E-02  0.5066E-01  0.1199E-02
      8.402  0.6107E-01  0.9393E-02  0.9393E-02  0.6100E-02  0.1882E-01  0.1113E-01  0.1270E-02  0.1882E-01  0.4451E-03
      8.468  0.1018E-01  0.1566E-02  0.1566E-02  0.1017E-02  0.3138E-02  0.1856E-02  0.2117E-03  0.3138E-02  0.7420E-04
      8.533  0.7562E-03  0.1163E-03  0.1163E-03  0.7553E-04  0.2331E-03  0.1378E-03  0.1573E-04  0.2331E-03  0.5511E-05
      8.598  0.2502E-04  0.3820E-05  0.4134E-05  0.2485E-05  0.7678E-05  0.4591E-05  0.5371E-06  0.7800E-05  0.1810E-06
      8.664  0.1285E-04  0.8595E-07  0.2184E-04  0.3565E-06  0.1677E-05  0.4533E-05  0.1440E-05  0.1015E-04  0.3458E-08
      8.729  0.3810E-03  0.9421E-06  0.6642E-03  0.9781E-05  0.4777E-04  0.1362E-03  0.4369E-04  0.3063E-03  0.2590E-07
      8.794  0.5136E-02  0.1270E-04  0.8955E-02  0.1319E-03  0.6440E-03  0.1837E-02  0.5890E-03  0.4129E-02  0.3490E-06
      8.860  0.3085E-01  0.7627E-04  0.5379E-01  0.7921E-03  0.3868E-02  0.1103E-01  0.3538E-02  0.2480E-01  0.2096E-05
      8.925  0.8314E-01  0.2055E-03  0.1449E+00  0.2135E-02  0.1042E-01  0.2973E-01  0.9534E-02  0.6684E-01  0.5649E-05
      8.991  0.1010E+00  0.2496E-03  0.1760E+00  0.2592E-02  0.1266E-01  0.3610E-01  0.1158E-01  0.8116E-01  0.6860E-05
      9.056  0.5530E-01  0.1367E-03  0.9641E-01  0.1420E-02  0.6933E-02  0.1977E-01  0.6341E-02  0.4446E-01  0.3758E-05
      9.121  0.1363E-01  0.3371E-04  0.2375E-01  0.3500E-03  0.1709E-02  0.4871E-02  0.1562E-02  0.1095E-01  0.9303E-06
      9.187  0.1710E-02  0.5099E-05  0.2709E-02  0.4928E-04  0.2309E-03  0.5444E-03  0.1792E-03  0.1225E-02  0.2785E-06
      9.252  0.3656E-02  0.2504E-04  0.1718E-02  0.1868E-03  0.7417E-03  0.1593E-03  0.1300E-03  0.3816E-03  0.3024E-05
      9.317  0.2729E-01  0.2334E-03  0.1209E-01  0.1450E-02  0.5611E-02  0.1015E-02  0.9367E-03  0.2457E-02  0.2295E-04
      9.383  0.9377E-01  0.1589E-02  0.4117E-01  0.5731E-02  0.1989E-01  0.3501E-02  0.3403E-02  0.8406E-02  0.7810E-04
      9.448  0.1509E+00  0.8749E-02  0.6331E-01  0.1509E-01  0.3673E-01  0.5756E-02  0.6924E-02  0.1327E-01  0.1197E-03
      9.514  0.1302E+00  0.2854E-01  0.4458E-01  0.3292E-01  0.4767E-01  0.5375E-02  0.1088E-01  0.1057E-01  0.8271E-04
      9.579  0.8203E-01  0.4500E-01  0.1519E-01  0.4637E-01  0.5063E-01  0.3915E-02  0.1317E-01  0.5532E-02  0.2574E-04
      9.644  0.4156E-01  0.3249E-01  0.3070E-02  0.3268E-01  0.3304E-01  0.2173E-02  0.8935E-02  0.2399E-02  0.3590E-05
      9.710  0.1244E-01  0.1059E-01  0.5020E-03  0.1061E-01  0.1055E-01  0.6674E-03  0.2878E-02  0.6814E-03  0.2239E-06
      9.775  0.1789E-02  0.1551E-02  0.6130E-04  0.1550E-02  0.1538E-02  0.9652E-04  0.4201E-03  0.9785E-04  0.1324E-06
      9.840  0.1783E-03  0.1811E-03  0.8399E-04  0.1293E-03  0.1446E-03  0.9750E-05  0.4291E-04  0.5089E-04  0.5555E-05