    4    4   10    1
  0.1202255E+02  0.3636516E-09  0.3636516E-09  0.3636516E-09  0.3500000E-15
   1.0000000000000000E-004
  CAR 
 Au, FCC                                 
   44   10   26

  0.8333333E-01  0.8333333E-01  0.8333333E-01  0.3703704E-01
   1       -5.3079
   2       -1.0883
   3       -1.0883
   4       -1.0883
   5       -0.6661
   6       -0.6661
   7       -0.6661
   8        0.5753
   9        0.6712
  10        0.6712
  11        1.4212
  12        1.4212
  13        1.8349
  14        1.8349
  15        1.8349
  16        1.8965
  17        1.8965
  18        1.8965
  19        2.0911
  20        2.0911
  21        2.0911
  22        5.0927
  23        5.0927
  24        5.0927
  25       11.4877
  26       11.4877

  0.2500000E+00  0.8333333E-01  0.8333333E-01  0.1111111E+00
   1       -4.6556
   2       -1.1787
   3       -0.8127
   4       -0.8127
   5       -0.5038
   6       -0.4868
   7       -0.4868
   8        0.4138
   9        0.7964
  10        0.8014
  11        1.1446
  12        1.1446
  13        1.2812
  14        1.4488
  15        1.5080
  16        1.7006
  17        1.7114
  18        1.7114
  19        1.9871
  20        2.0718
  21        2.0718
  22        2.9608
  23        6.2903
  24        6.2903
  25       11.8373
  26       11.8373

  0.4166667E+00  0.8333333E-01  0.8333333E-01  0.1111111E+00
   1       -3.4326
   2       -1.9700
   3       -0.4522
   4       -0.4522
   5       -0.2182
   6       -0.1412
   7       -0.1412
   8        0.1181
   9        0.4247
  10        0.4247
  11        0.8833
  12        0.9040
  13        1.0500
  14        1.2787
  15        1.3780
  16        1.4470
  17        1.4470
  18        1.6576
  19        1.7600
  20        1.8310
  21        2.0644
  22        2.0644
  23        7.9925
  24        7.9925
  25       10.0817
  26       10.0817

  0.2500000E+00  0.2500000E+00  0.8333333E-01  0.1111111E+00
   1       -4.0317
   2       -0.8558
   3       -0.8558
   4       -0.6047
   5       -0.3570
   6       -0.3460
   7       -0.3460
   8        0.3559
   9        0.7839
  10        0.7839
  11        0.7961
  12        0.8490
  13        0.8635
  14        1.2817
  15        1.5189
  16        1.5737
  17        1.5737
  18        1.5902
  19        1.9429
  20        1.9429
  21        1.9636
  22        3.9654
  23        3.9654
  24        7.2064
  25        9.5525
  26       12.3055

  0.4166667E+00  0.2500000E+00  0.8333333E-01  0.2222222E+00
   1       -2.8789
   2       -1.5441
   3       -0.4158
   4       -0.3165
   5       -0.1853
   6       -0.1008
   7       -0.0842
   8        0.1625
   9        0.2597
  10        0.4310
  11        0.5641
  12        0.7202
  13        1.0105
  14        1.2762
  15        1.3292
  16        1.3498
  17        1.3754
  18        1.6946
  19        1.8785
  20        1.8792
  21        1.8850
  22        2.4588
  23        5.3127
  24        7.0258
  25        8.9411
  26       10.8518

  0.4166667E+00  0.4166667E+00  0.8333333E-01  0.1111111E+00
   1       -1.9170
   2       -0.9352
   3       -0.9352
   4       -0.5186
   5        0.1060
   6        0.1298
   7        0.1298
   8        0.1917
   9        0.3234
  10        0.3234
  11        0.3581
  12        0.5870
  13        0.9933
  14        1.1486
  15        1.1527
  16        1.1527
  17        1.3538
  18        1.6008
  19        1.6008
  20        1.6821
  21        2.4045
  22        3.3852
  23        3.3852
  24        4.8292
  25       10.3225
  26       12.2384

  0.2500000E+00  0.2500000E+00  0.2500000E+00  0.3703704E-01
   1       -3.4571
   2       -0.7299
   3       -0.7299
   4       -0.7299
   5       -0.1740
   6       -0.1740
   7       -0.1740
   8        0.3893
   9        0.6632
  10        0.6632
  11        0.6632
  12        0.7812
  13        0.7812
  14        1.2571
  15        1.2571
  16        1.2571
  17        1.5183
  18        1.5183
  19        2.0308
  20        2.0308
  21        2.0308
  22        4.5935
  23        4.5935
  24        4.5935
  25       10.3380
  26       10.3380

  0.4166667E+00  0.2500000E+00  0.2500000E+00  0.1111111E+00
   1       -2.4361
   2       -1.3440
   3       -0.6329
   4       -0.6329
   5        0.0449
   6        0.0449
   7        0.1380
   8        0.3473
   9        0.5567
  10        0.5686
  11        0.5686
  12        0.6925
  13        0.8187
  14        0.9897
  15        1.0985
  16        1.0985
  17        1.7050
  18        1.7816
  19        1.9562
  20        1.9562
  21        1.9718
  22        2.6539
  23        5.5324
  24        5.5324
  25        8.2556
  26        8.2556

  0.4166667E+00  0.4166667E+00  0.2500000E+00  0.1111111E+00
   1       -1.7507
   2       -1.1168
   3       -1.1168
   4       -0.8951
   5        0.2960
   6        0.3925
   7        0.3925
   8        0.6257
   9        0.6811
  10        0.6975
  11        0.6975
  12        0.7441
  13        0.8162
  14        0.8710
  15        0.8710
  16        0.8823
  17        1.6791
  18        1.8879
  19        1.8879
  20        1.8961
  21        2.2340
  22        3.3962
  23        3.3962
  24        4.6722
  25        7.9289
  26        9.4179

  0.4166667E+00  0.4166667E+00  0.4166667E+00  0.3703704E-01
   1       -1.5254
   2       -1.2506
   3       -1.2506
   4       -1.2506
   5        0.5167
   6        0.5167
   7        0.5167
   8        0.6297
   9        0.6297
  10        0.6813
  11        0.6813
  12        0.6813
  13        1.3626
  14        1.3626
  15        1.3626
  16        1.7450
  17        1.9178
  18        1.9178
  19        1.9966
  20        1.9966
  21        1.9966
  22        3.4070
  23        3.4070
  24        3.4070
  25        7.6492
  26        7.6492
