       N       E                     dE             d eps       ncg     rms          rms(c)
DAV:   1     0.236648366191E+03    0.23665E+03   -0.16919E+04   520   0.199E+03

DAV:   2    -0.548655018965E+01   -0.24213E+03   -0.23675E+03   520   0.362E+02

DAV:   3    -0.181670682821E+02   -0.12681E+02   -0.12474E+02   532   0.113E+02

DAV:   4    -0.182727780657E+02   -0.10571E+00   -0.10564E+00   542   0.116E+01

DAV:   5    -0.182733376376E+02   -0.55957E-03   -0.55957E-03   542   0.525E-01    0.136E+01
RMM:   6    -0.162440281475E+02    0.20293E+01   -0.36754E+01   520   0.733E+01    0.654E+00
RMM:   7    -0.149533971114E+02    0.12906E+01   -0.64552E+00   520   0.325E+01    0.149E+00
RMM:   8    -0.148983924071E+02    0.55005E-01   -0.53680E-03   494   0.671E-01    0.396E-01
RMM:   9    -0.148948748757E+02    0.35175E-02   -0.71032E-03   521   0.810E-01    0.419E-02
RMM:  10    -0.148949397448E+02   -0.64869E-04   -0.16450E-04   282   0.182E-01

   1 F= -.14894940E+02 E0= -.14884072E+02  d E =-.148949E+02
       N       E                     dE             d eps       ncg     rms          rms(c)
DAV:   1    -0.150879231727E+02   -0.15088E+02   -0.20294E+00   528   0.211E+01    0.337E+00
RMM:   2    -0.149606593360E+02    0.12726E+00   -0.16022E+00   520   0.150E+01    0.131E+00
RMM:   3    -0.149000079474E+02    0.60651E-01   -0.27855E-01   520   0.678E+00    0.611E-01
RMM:   4    -0.148928905024E+02    0.71174E-02   -0.34604E-03   497   0.505E-01    0.768E-02
RMM:   5    -0.148927909876E+02    0.99515E-04   -0.16106E-04   285   0.171E-01

   2 F= -.14892791E+02 E0= -.14881807E+02  d E =0.214876E-02
       N       E                     dE             d eps       ncg     rms          rms(c)
DAV:   1    -0.149390987093E+02   -0.14939E+02   -0.45422E-01   522   0.101E+01    0.161E+00
RMM:   2    -0.149111884522E+02    0.27910E-01   -0.36095E-01   520   0.704E+00    0.643E-01
RMM:   3    -0.148965090321E+02    0.14679E-01   -0.62125E-02   520   0.320E+00    0.280E-01
RMM:   4    -0.148949229753E+02    0.15861E-02   -0.47325E-04   375   0.194E-01    0.229E-02
RMM:   5    -0.148949179256E+02    0.50497E-05   -0.15956E-05   251   0.494E-02

   3 F= -.14894918E+02 E0= -.14883971E+02  d E =-.212694E-02
       N       E                     dE             d eps       ncg     rms          rms(c)
DAV:   1    -0.149005497232E+02   -0.14901E+02   -0.55581E-02   534   0.353E+00    0.562E-01
RMM:   2    -0.148972058271E+02    0.33439E-02   -0.44312E-02   520   0.247E+00    0.229E-01
RMM:   3    -0.148953864966E+02    0.18193E-02   -0.78170E-03   520   0.113E+00    0.980E-02
RMM:   4    -0.148951897367E+02    0.19676E-03   -0.55649E-05   281   0.684E-02    0.802E-03
RMM:   5    -0.148951900308E+02   -0.29407E-06   -0.44743E-06   219   0.245E-02

   4 F= -.14895190E+02 E0= -.14884266E+02  d E =-.272105E-03

