PROCAR lm decomposed
# of k-points:   10         # of bands:  26         # of ions:   4

 k-point    1 :    0.08333333 0.08333333 0.08333333     weight = 0.03703704

band   1 # energy   -5.30785696 # occ.  2.00000000

ion      s     py     pz     px    dxy    dyz    dz2    dxz    dx2    tot
  1  0.145  0.001  0.001  0.001  0.000  0.000  0.000  0.000  0.000  0.149
  2  0.145  0.001  0.001  0.001  0.000  0.000  0.000  0.000  0.000  0.149
  3  0.145  0.001  0.001  0.001  0.000  0.000  0.000  0.000  0.000  0.149
  4  0.145  0.001  0.001  0.001  0.000  0.000  0.000  0.000  0.000  0.149
tot  0.582  0.004  0.004  0.004  0.000  0.000  0.000  0.000  0.000  0.595

band   2 # energy   -1.08830143 # occ.  2.00000000

ion      s     py     pz     px    dxy    dyz    dz2    dxz    dx2    tot
  1  0.009  0.001  0.001  0.000  0.000  0.000  0.074  0.001  0.145  0.231
  2  0.013  0.001  0.000  0.000  0.000  0.000  0.032  0.000  0.145  0.193
  3  0.014  0.001  0.000  0.000  0.000  0.000  0.033  0.000  0.144  0.192
  4  0.009  0.001  0.001  0.000  0.000  0.000  0.074  0.001  0.144  0.230
tot  0.045  0.004  0.002  0.002  0.000  0.000  0.214  0.002  0.577  0.846

band   3 # energy   -1.08830142 # occ.  2.00000000

ion      s     py     pz     px    dxy    dyz    dz2    dxz    dx2    tot
  1  0.015  0.000  0.001  0.000  0.000  0.000  0.140  0.000  0.021  0.178
  2  0.006  0.000  0.001  0.001  0.001  0.000  0.221  0.000  0.021  0.251
  3  0.012  0.001  0.001  0.000  0.000  0.000  0.181  0.000  0.010  0.205
  4  0.011  0.000  0.001  0.001  0.000  0.000  0.187  0.000  0.010  0.211
tot  0.045  0.002  0.004  0.002  0.002  0.000  0.729  0.000  0.062  0.846

band   4 # energy   -1.08830133 # occ.  2.00000000

ion      s     py     pz     px    dxy    dyz    dz2    dxz    dx2    tot
  1  0.009  0.000  0.001  0.001  0.000  0.001  0.083  0.000  0.131  0.226
  2  0.014  0.000  0.000  0.001  0.000  0.000  0.043  0.000  0.131  0.190
  3  0.008  0.000  0.001  0.001  0.000  0.001  0.083  0.000  0.143  0.237
  4  0.013  0.000  0.000  0.001  0.000  0.000  0.035  0.000  0.143  0.194
tot  0.045  0.002  0.002  0.004  0.000  0.002  0.244  0.000  0.547  0.846

band   5 # energy   -0.66610745 # occ.  2.00000000

ion      s     py     pz     px    dxy    dyz    dz2    dxz    dx2    tot
  1  0.000  0.000  0.000  0.000  0.000  0.228  0.000  0.000  0.000  0.229
  2  0.000  0.000  0.000  0.000  0.000  0.228  0.000  0.000  0.000  0.229
  3  0.000  0.000  0.000  0.000  0.000  0.228  0.000  0.000  0.000  0.229
  4  0.000  0.000  0.000  0.000  0.000  0.228  0.000  0.000  0.000  0.229
tot  0.000  0.002  0.002  0.000  0.000  0.910  0.000  0.000  0.001  0.916

band   6 # energy   -0.66610716 # occ.  2.00000000

ion      s     py     pz     px    dxy    dyz    dz2    dxz    dx2    tot
  1  0.000  0.000  0.000  0.000  0.228  0.000  0.000  0.000  0.000  0.229
  2  0.000  0.000  0.000  0.000  0.228  0.000  0.000  0.000  0.000  0.229
  3  0.000  0.000  0.000  0.000  0.228  0.000  0.000  0.000  0.000  0.229
  4  0.000  0.000  0.000  0.000  0.228  0.000  0.000  0.000  0.000  0.229
tot  0.000  0.002  0.000  0.002  0.910  0.000  0.002  0.000  0.000  0.916

band   7 # energy   -0.66610716 # occ.  2.00000000

ion      s     py     pz     px    dxy    dyz    dz2    dxz    dx2    tot
  1  0.000  0.000  0.000  0.000  0.000  0.000  0.000  0.228  0.000  0.229
  2  0.000  0.000  0.000  0.000  0.000  0.000  0.000  0.228  0.000  0.229
  3  0.000  0.000  0.000  0.000  0.000  0.000  0.000  0.228  0.000  0.229
  4  0.000  0.000  0.000  0.000  0.000  0.000  0.000  0.228  0.000  0.229
tot  0.000  0.000  0.002  0.002  0.000  0.000  0.000  0.910  0.001  0.916

band   8 # energy    0.57533610 # occ.  2.00000000

ion      s     py     pz     px    dxy    dyz    dz2    dxz    dx2    tot
  1  0.000  0.000  0.000  0.000  0.080  0.080  0.000  0.080  0.000  0.241
  2  0.000  0.000  0.000  0.000  0.080  0.080  0.000  0.080  0.000  0.241
  3  0.000  0.000  0.000  0.000  0.080  0.080  0.000  0.080  0.000  0.241
  4  0.000  0.000  0.000  0.000  0.080  0.080  0.000  0.080  0.000  0.241
tot  0.000  0.000  0.000  0.000  0.320  0.320  0.000  0.320  0.000  0.962

band   9 # energy    0.67115607 # occ.  2.00000000

ion      s     py     pz     px    dxy    dyz    dz2    dxz    dx2    tot
  1  0.000  0.000  0.000  0.000  0.041  0.160  0.000  0.039  0.001  0.242
  2  0.000  0.000  0.000  0.000  0.041  0.160  0.000  0.039  0.001  0.242
  3  0.000  0.000  0.000  0.000  0.041  0.160  0.000  0.039  0.001  0.242
  4  0.000  0.000  0.000  0.000  0.041  0.160  0.000  0.039  0.001  0.242
tot  0.000  0.000  0.000  0.000  0.165  0.642  0.001  0.156  0.003  0.967

band  10 # energy    0.67115627 # occ.  2.00000000

ion      s     py     pz     px    dxy    dyz    dz2    dxz    dx2    tot
  1  0.000  0.000  0.000  0.000  0.119  0.000  0.001  0.122  0.000  0.242
  2  0.000  0.000  0.000  0.000  0.119  0.000  0.001  0.122  0.000  0.242
  3  0.000  0.000  0.000  0.000  0.119  0.000  0.001  0.122  0.000  0.242
  4  0.000  0.000  0.000  0.000  0.119  0.000  0.001  0.122  0.000  0.242
tot  0.000  0.000  0.000  0.000  0.477  0.000  0.003  0.486  0.001  0.967

band  11 # energy    1.42115048 # occ.  2.00000000

ion      s     py     pz     px    dxy    dyz    dz2    dxz    dx2    tot
  1  0.000  0.000  0.000  0.000  0.000  0.000  0.181  0.000  0.063  0.246
  2  0.000  0.000  0.000  0.000  0.000  0.000  0.181  0.000  0.063  0.246
  3  0.000  0.000  0.000  0.000  0.000  0.000  0.181  0.000  0.063  0.246
  4  0.000  0.000  0.000  0.000  0.000  0.000  0.181  0.000  0.063  0.246
tot  0.000  0.000  0.000  0.000  0.002  0.000  0.726  0.002  0.254  0.983

band  12 # energy    1.42115081 # occ.  2.00000000

ion      s     py     pz     px    dxy    dyz    dz2    dxz    dx2    tot
  1  0.000  0.000  0.000  0.000  0.000  0.001  0.063  0.000  0.181  0.246
  2  0.000  0.000  0.000  0.000  0.000  0.001  0.063  0.000  0.181  0.246
  3  0.000  0.000  0.000  0.000  0.000  0.001  0.063  0.000  0.181  0.246
  4  0.000  0.000  0.000  0.000  0.000  0.001  0.063  0.000  0.181  0.246
tot  0.000  0.000  0.000  0.000  0.001  0.002  0.254  0.001  0.726  0.983

band  13 # energy    1.83489282 # occ.  2.00000000

ion      s     py     pz     px    dxy    dyz    dz2    dxz    dx2    tot
  1  0.001  0.009  0.000  0.000  0.113  0.101  0.000  0.001  0.001  0.225
  2  0.001  0.009  0.000  0.000  0.114  0.128  0.000  0.002  0.001  0.255
  3  0.001  0.009  0.000  0.000  0.114  0.128  0.000  0.002  0.001  0.255
  4  0.001  0.009  0.000  0.000  0.114  0.101  0.000  0.001  0.001  0.226
tot  0.003  0.035  0.000  0.000  0.456  0.459  0.001  0.004  0.003  0.961

band  14 # energy    1.83489283 # occ.  2.00000000

ion      s     py     pz     px    dxy    dyz    dz2    dxz    dx2    tot
  1  0.001  0.000  0.009  0.000  0.002  0.128  0.001  0.115  0.000  0.256
  2  0.001  0.000  0.009  0.000  0.001  0.101  0.001  0.112  0.000  0.224
  3  0.001  0.000  0.009  0.000  0.001  0.101  0.001  0.114  0.000  0.227
  4  0.001  0.000  0.009  0.000  0.002  0.128  0.001  0.113  0.000  0.254
tot  0.003  0.000  0.035  0.000  0.004  0.459  0.003  0.456  0.000  0.961

band  15 # energy    1.83489296 # occ.  2.00000000

ion      s     py     pz     px    dxy    dyz    dz2    dxz    dx2    tot
  1  0.001  0.000  0.000  0.009  0.115  0.000  0.000  0.114  0.001  0.239
  2  0.001  0.000  0.000  0.009  0.115  0.000  0.000  0.116  0.001  0.242
  3  0.001  0.000  0.000  0.009  0.115  0.000  0.000  0.114  0.001  0.239
  4  0.001  0.000  0.000  0.009  0.115  0.000  0.000  0.116  0.001  0.241
tot  0.003  0.000  0.000  0.035  0.459  0.001  0.001  0.459  0.003  0.961

band  16 # energy    1.89654199 # occ.  2.00000000

ion      s     py     pz     px    dxy    dyz    dz2    dxz    dx2    tot
  1  0.000  0.000  0.000  0.000  0.010  0.000  0.170  0.010  0.057  0.247
  2  0.000  0.000  0.000  0.000  0.010  0.000  0.170  0.010  0.057  0.247
  3  0.000  0.000  0.000  0.000  0.010  0.000  0.170  0.010  0.057  0.247
  4  0.000  0.000  0.000  0.000  0.010  0.000  0.170  0.010  0.057  0.247
tot  0.000  0.001  0.001  0.000  0.042  0.000  0.679  0.042  0.226  0.989

band  17 # energy    1.89654221 # occ.  2.00000000

ion      s     py     pz     px    dxy    dyz    dz2    dxz    dx2    tot
  1  0.000  0.000  0.000  0.000  0.000  0.010  0.000  0.010  0.226  0.247
  2  0.000  0.000  0.000  0.000  0.000  0.010  0.000  0.010  0.226  0.247
  3  0.000  0.000  0.000  0.000  0.000  0.010  0.000  0.010  0.226  0.247
  4  0.000  0.000  0.000  0.000  0.000  0.010  0.000  0.010  0.226  0.247
tot  0.000  0.001  0.000  0.001  0.000  0.042  0.000  0.042  0.905  0.989

band  18 # energy    1.89654222 # occ.  2.00000000

ion      s     py     pz     px    dxy    dyz    dz2    dxz    dx2    tot
  1  0.000  0.000  0.000  0.000  0.010  0.010  0.170  0.000  0.057  0.247
  2  0.000  0.000  0.000  0.000  0.010  0.010  0.170  0.000  0.057  0.247
  3  0.000  0.000  0.000  0.000  0.010  0.010  0.170  0.000  0.057  0.247
  4  0.000  0.000  0.000  0.000  0.010  0.010  0.170  0.000  0.057  0.247
tot  0.000  0.000  0.001  0.001  0.042  0.042  0.679  0.000  0.226  0.989

band  19 # energy    2.09106628 # occ.  2.00000000

ion      s     py     pz     px    dxy    dyz    dz2    dxz    dx2    tot
  1  0.000  0.000  0.000  0.000  0.114  0.114  0.016  0.000  0.005  0.248
  2  0.000  0.000  0.000  0.000  0.114  0.114  0.016  0.000  0.005  0.248
  3  0.000  0.000  0.000  0.000  0.114  0.114  0.016  0.000  0.005  0.248
  4  0.000  0.000  0.000  0.000  0.114  0.114  0.016  0.000  0.005  0.248
tot  0.000  0.000  0.000  0.000  0.455  0.455  0.063  0.000  0.021  0.994

band  20 # energy    2.09106628 # occ.  2.00000000

ion      s     py     pz     px    dxy    dyz    dz2    dxz    dx2    tot
  1  0.000  0.000  0.000  0.000  0.000  0.114  0.000  0.114  0.021  0.248
  2  0.000  0.000  0.000  0.000  0.000  0.114  0.000  0.114  0.021  0.248
  3  0.000  0.000  0.000  0.000  0.000  0.114  0.000  0.114  0.021  0.248
  4  0.000  0.000  0.000  0.000  0.000  0.114  0.000  0.114  0.021  0.248
tot  0.000  0.000  0.000  0.000  0.000  0.455  0.000  0.455  0.084  0.994

band  21 # energy    2.09106639 # occ.  2.00000000

ion      s     py     pz     px    dxy    dyz    dz2    dxz    dx2    tot
  1  0.000  0.000  0.000  0.000  0.114  0.000  0.016  0.114  0.005  0.248
  2  0.000  0.000  0.000  0.000  0.114  0.000  0.016  0.114  0.005  0.248
  3  0.000  0.000  0.000  0.000  0.114  0.000  0.016  0.114  0.005  0.248
  4  0.000  0.000  0.000  0.000  0.114  0.000  0.016  0.114  0.005  0.248
tot  0.000  0.000  0.000  0.000  0.455  0.000  0.063  0.455  0.021  0.994

band  22 # energy    5.09265648 # occ.  0.00000000

ion      s     py     pz     px    dxy    dyz    dz2    dxz    dx2    tot
  1  0.010  0.112  0.006  0.000  0.009  0.007  0.005  0.000  0.008  0.159
  2  0.018  0.110  0.004  0.000  0.009  0.012  0.002  0.000  0.008  0.164
  3  0.018  0.110  0.004  0.000  0.009  0.012  0.002  0.000  0.008  0.164
  4  0.010  0.112  0.006  0.000  0.009  0.007  0.005  0.000  0.008  0.159
tot  0.056  0.444  0.020  0.001  0.037  0.038  0.013  0.002  0.034  0.645

band  23 # energy    5.09265648 # occ.  0.00000000

ion      s     py     pz     px    dxy    dyz    dz2    dxz    dx2    tot
  1  0.019  0.004  0.109  0.001  0.000  0.012  0.009  0.010  0.001  0.164
  2  0.009  0.006  0.112  0.002  0.000  0.007  0.013  0.008  0.001  0.158
  3  0.012  0.006  0.111  0.001  0.001  0.007  0.012  0.010  0.000  0.160
  4  0.017  0.004  0.109  0.002  0.001  0.012  0.010  0.008  0.000  0.163
tot  0.056  0.020  0.440  0.005  0.002  0.038  0.045  0.037  0.002  0.645

band  24 # energy    5.09265657 # occ.  0.00000000

ion      s     py     pz     px    dxy    dyz    dz2    dxz    dx2    tot
  1  0.013  0.000  0.002  0.115  0.010  0.000  0.003  0.009  0.009  0.161
  2  0.015  0.000  0.001  0.115  0.010  0.000  0.003  0.010  0.009  0.162
  3  0.013  0.000  0.002  0.115  0.009  0.000  0.003  0.009  0.009  0.160
  4  0.015  0.000  0.001  0.115  0.009  0.000  0.002  0.010  0.009  0.162
tot  0.056  0.001  0.005  0.460  0.038  0.000  0.012  0.038  0.035  0.645

band  25 # energy   11.48767923 # occ.  0.00000000

ion      s     py     pz     px    dxy    dyz    dz2    dxz    dx2    tot
  1  0.063  0.016  0.001  0.001  0.000  0.000  0.031  0.000  0.056  0.168
  2  0.104  0.018  0.003  0.001  0.000  0.000  0.012  0.000  0.056  0.194
  3  0.104  0.018  0.003  0.001  0.000  0.000  0.012  0.000  0.056  0.194
  4  0.064  0.016  0.001  0.001  0.000  0.000  0.031  0.000  0.056  0.168
tot  0.335  0.069  0.006  0.004  0.001  0.001  0.085  0.000  0.223  0.724

band  26 # energy   11.48767930 # occ.  0.00000000

ion      s     py     pz     px    dxy    dyz    dz2    dxz    dx2    tot
  1  0.120  0.002  0.010  0.012  0.000  0.000  0.022  0.000  0.038  0.205
  2  0.035  0.000  0.006  0.008  0.000  0.000  0.061  0.000  0.038  0.149
  3  0.116  0.001  0.009  0.012  0.000  0.000  0.033  0.000  0.029  0.202
  4  0.065  0.002  0.007  0.009  0.000  0.000  0.056  0.000  0.029  0.169
tot  0.335  0.005  0.032  0.042  0.000  0.000  0.173  0.001  0.134  0.724


 k-point    2 :    0.25000000 0.08333333 0.08333333     weight = 0.11111111

band   1 # energy   -4.65560315 # occ.  2.00000000

ion      s     py     pz     px    dxy    dyz    dz2    dxz    dx2    tot
  1  0.137  0.001  0.001  0.009  0.000  0.000  0.000  0.000  0.000  0.149
  2  0.137  0.001  0.001  0.009  0.000  0.000  0.000  0.000  0.000  0.149
  3  0.137  0.001  0.001  0.009  0.000  0.000  0.000  0.000  0.000  0.149
  4  0.137  0.001  0.001  0.009  0.000  0.000  0.000  0.000  0.000  0.149
tot  0.546  0.004  0.004  0.038  0.001  0.000  0.001  0.001  0.002  0.596

band   2 # energy   -1.17871512 # occ.  2.00000000

ion      s     py     pz     px    dxy    dyz    dz2    dxz    dx2    tot
  1  0.027  0.000  0.000  0.012  0.001  0.001  0.039  0.001  0.116  0.197
  2  0.027  0.000  0.000  0.012  0.001  0.001  0.039  0.001  0.116  0.197
  3  0.027  0.000  0.000  0.012  0.001  0.001  0.039  0.001  0.116  0.197
  4  0.027  0.000  0.000  0.012  0.001  0.001  0.039  0.001  0.116  0.197
tot  0.109  0.002  0.002  0.049  0.003  0.003  0.155  0.003  0.465  0.790

band   3 # energy   -0.81267979 # occ.  2.00000000

ion      s     py     pz     px    dxy    dyz    dz2    dxz    dx2    tot
  1  0.007  0.001  0.000  0.003  0.000  0.000  0.065  0.005  0.132  0.214
  2  0.007  0.001  0.000  0.003  0.000  0.000  0.065  0.005  0.132  0.214
  3  0.007  0.001  0.000  0.003  0.000  0.000  0.065  0.005  0.132  0.214
  4  0.007  0.001  0.000  0.003  0.000  0.000  0.065  0.005  0.132  0.214
tot  0.029  0.004  0.000  0.012  0.001  0.000  0.258  0.020  0.530  0.856

band   4 # energy   -0.81267978 # occ.  2.00000000

ion      s     py     pz     px    dxy    dyz    dz2    dxz    dx2    tot
  1  0.007  0.000  0.001  0.003  0.005  0.000  0.196  0.000  0.001  0.214
  2  0.007  0.000  0.001  0.003  0.005  0.000  0.196  0.000  0.001  0.214
  3  0.007  0.000  0.001  0.003  0.005  0.000  0.196  0.000  0.001  0.214
  4  0.007  0.000  0.001  0.003  0.005  0.000  0.196  0.000  0.001  0.214
tot  0.029  0.000  0.004  0.012  0.020  0.000  0.782  0.001  0.006  0.856

band   5 # energy   -0.50383889 # occ.  2.00000000

ion      s     py     pz     px    dxy    dyz    dz2    dxz    dx2    tot
  1  0.000  0.000  0.000  0.000  0.000  0.228  0.000  0.000  0.001  0.230
  2  0.000  0.000  0.000  0.000  0.000  0.228  0.000  0.000  0.001  0.230
  3  0.000  0.000  0.000  0.000  0.000  0.228  0.000  0.000  0.001  0.230
  4  0.000  0.000  0.000  0.000  0.000  0.228  0.000  0.000  0.001  0.230
tot  0.000  0.002  0.002  0.000  0.002  0.910  0.001  0.002  0.002  0.921

band   6 # energy   -0.48677444 # occ.  2.00000000

ion      s     py     pz     px    dxy    dyz    dz2    dxz    dx2    tot
  1  0.000  0.004  0.000  0.001  0.218  0.000  0.004  0.000  0.000  0.228
  2  0.000  0.004  0.000  0.001  0.218  0.000  0.004  0.000  0.000  0.228
  3  0.000  0.004  0.000  0.001  0.218  0.000  0.004  0.000  0.000  0.228
  4  0.000  0.004  0.000  0.001  0.218  0.000  0.004  0.000  0.000  0.228
tot  0.000  0.016  0.000  0.003  0.872  0.002  0.017  0.001  0.000  0.911

band   7 # energy   -0.48677443 # occ.  2.00000000

ion      s     py     pz     px    dxy    dyz    dz2    dxz    dx2    tot
  1  0.000  0.000  0.004  0.001  0.000  0.000  0.002  0.218  0.003  0.228
  2  0.000  0.000  0.004  0.001  0.000  0.000  0.002  0.218  0.003  0.228
  3  0.000  0.000  0.004  0.001  0.000  0.000  0.002  0.218  0.003  0.228
  4  0.000  0.000  0.004  0.001  0.000  0.000  0.002  0.218  0.003  0.228
tot  0.000  0.000  0.016  0.003  0.001  0.002  0.007  0.872  0.011  0.911

band   8 # energy    0.41377323 # occ.  2.00000000

ion      s     py     pz     px    dxy    dyz    dz2    dxz    dx2    tot
  1  0.000  0.000  0.000  0.000  0.014  0.210  0.000  0.014  0.000  0.239
  2  0.000  0.000  0.000  0.000  0.014  0.210  0.000  0.014  0.000  0.239
  3  0.000  0.000  0.000  0.000  0.014  0.210  0.000  0.014  0.000  0.239
  4  0.000  0.000  0.000  0.000  0.014  0.210  0.000  0.014  0.000  0.239
tot  0.000  0.001  0.001  0.000  0.055  0.842  0.000  0.055  0.000  0.954

band   9 # energy    0.79640778 # occ.  2.00000000

ion      s     py     pz     px    dxy    dyz    dz2    dxz    dx2    tot
  1  0.000  0.000  0.000  0.000  0.102  0.028  0.002  0.102  0.007  0.242
  2  0.000  0.000  0.000  0.000  0.102  0.028  0.002  0.102  0.007  0.242
  3  0.000  0.000  0.000  0.000  0.102  0.028  0.002  0.102  0.007  0.242
  4  0.000  0.000  0.000  0.000  0.102  0.028  0.002  0.102  0.007  0.242
tot  0.000  0.001  0.001  0.001  0.407  0.110  0.010  0.407  0.029  0.967

band  10 # energy    0.80141246 # occ.  2.00000000

ion      s     py     pz     px    dxy    dyz    dz2    dxz    dx2    tot
  1  0.000  0.000  0.000  0.000  0.117  0.000  0.006  0.117  0.002  0.242
  2  0.000  0.000  0.000  0.000  0.117  0.000  0.006  0.117  0.002  0.242
  3  0.000  0.000  0.000  0.000  0.117  0.000  0.006  0.117  0.002  0.242
  4  0.000  0.000  0.000  0.000  0.117  0.000  0.006  0.117  0.002  0.242
tot  0.000  0.001  0.001  0.000  0.467  0.000  0.024  0.467  0.008  0.967

band  11 # energy    1.14463671 # occ.  2.00000000

ion      s     py     pz     px    dxy    dyz    dz2    dxz    dx2    tot
  1  0.001  0.016  0.000  0.000  0.193  0.013  0.006  0.001  0.000  0.231
  2  0.001  0.016  0.000  0.000  0.193  0.013  0.006  0.001  0.000  0.231
  3  0.001  0.016  0.000  0.000  0.193  0.013  0.006  0.001  0.000  0.231
  4  0.001  0.016  0.000  0.000  0.193  0.013  0.006  0.001  0.000  0.231
tot  0.005  0.065  0.000  0.000  0.773  0.053  0.024  0.002  0.000  0.923

band  12 # energy    1.14463671 # occ.  2.00000000

ion      s     py     pz     px    dxy    dyz    dz2    dxz    dx2    tot
  1  0.001  0.000  0.016  0.000  0.001  0.013  0.001  0.193  0.005  0.231
  2  0.001  0.000  0.016  0.000  0.001  0.013  0.001  0.193  0.005  0.231
  3  0.001  0.000  0.016  0.000  0.001  0.013  0.001  0.193  0.005  0.231
  4  0.001  0.000  0.016  0.000  0.001  0.013  0.001  0.193  0.005  0.231
tot  0.005  0.000  0.065  0.000  0.002  0.053  0.005  0.773  0.019  0.923

band  13 # energy    1.28124680 # occ.  2.00000000

ion      s     py     pz     px    dxy    dyz    dz2    dxz    dx2    tot
  1  0.000  0.000  0.000  0.000  0.004  0.001  0.058  0.004  0.175  0.244
  2  0.000  0.000  0.000  0.000  0.004  0.001  0.058  0.004  0.175  0.244
  3  0.000  0.000  0.000  0.000  0.004  0.001  0.058  0.004  0.175  0.244
  4  0.000  0.000  0.000  0.000  0.004  0.001  0.058  0.004  0.175  0.244
tot  0.001  0.000  0.000  0.001  0.017  0.004  0.234  0.017  0.701  0.976

band  14 # energy    1.44883187 # occ.  2.00000000

ion      s     py     pz     px    dxy    dyz    dz2    dxz    dx2    tot
  1  0.009  0.000  0.000  0.015  0.091  0.001  0.006  0.091  0.017  0.230
  2  0.009  0.000  0.000  0.015  0.091  0.001  0.006  0.091  0.017  0.230
  3  0.009  0.000  0.000  0.015  0.091  0.001  0.006  0.091  0.017  0.230
  4  0.009  0.000  0.000  0.015  0.091  0.001  0.006  0.091  0.017  0.230
tot  0.034  0.001  0.001  0.062  0.362  0.005  0.023  0.362  0.068  0.918

band  15 # energy    1.50798606 # occ.  2.00000000

ion      s     py     pz     px    dxy    dyz    dz2    dxz    dx2    tot
  1  0.000  0.000  0.000  0.000  0.004  0.000  0.179  0.004  0.060  0.246
  2  0.000  0.000  0.000  0.000  0.004  0.000  0.179  0.004  0.060  0.246
  3  0.000  0.000  0.000  0.000  0.004  0.000  0.179  0.004  0.060  0.246
  4  0.000  0.000  0.000  0.000  0.004  0.000  0.179  0.004  0.060  0.246
tot  0.000  0.000  0.000  0.000  0.016  0.000  0.714  0.016  0.238  0.984

band  16 # energy    1.70056513 # occ.  2.00000000

ion      s     py     pz     px    dxy    dyz    dz2    dxz    dx2    tot
  1  0.000  0.000  0.000  0.000  0.063  0.000  0.090  0.063  0.030  0.246
  2  0.000  0.000  0.000  0.000  0.063  0.000  0.090  0.063  0.030  0.246
  3  0.000  0.000  0.000  0.000  0.063  0.000  0.090  0.063  0.030  0.246
  4  0.000  0.000  0.000  0.000  0.063  0.000  0.090  0.063  0.030  0.246
tot  0.000  0.002  0.002  0.000  0.251  0.000  0.359  0.251  0.120  0.983

band  17 # energy    1.71139738 # occ.  2.00000000

ion      s     py     pz     px    dxy    dyz    dz2    dxz    dx2    tot
  1  0.000  0.000  0.001  0.001  0.000  0.010  0.002  0.001  0.230  0.245
  2  0.000  0.000  0.001  0.001  0.000  0.010  0.002  0.001  0.230  0.245
  3  0.000  0.000  0.001  0.001  0.000  0.010  0.002  0.001  0.230  0.245
  4  0.000  0.000  0.001  0.001  0.000  0.010  0.002  0.001  0.230  0.245
tot  0.001  0.000  0.002  0.002  0.000  0.041  0.010  0.005  0.920  0.981

band  18 # energy    1.71139739 # occ.  2.00000000

ion      s     py     pz     px    dxy    dyz    dz2    dxz    dx2    tot
  1  0.000  0.001  0.000  0.001  0.001  0.010  0.153  0.000  0.080  0.245
  2  0.000  0.001  0.000  0.001  0.001  0.010  0.153  0.000  0.080  0.245
  3  0.000  0.001  0.000  0.001  0.001  0.010  0.153  0.000  0.080  0.245
  4  0.000  0.001  0.000  0.001  0.001  0.010  0.153  0.000  0.080  0.245
tot  0.001  0.002  0.000  0.002  0.005  0.041  0.611  0.000  0.319  0.981

band  19 # energy    1.98707137 # occ.  2.00000000

ion      s     py     pz     px    dxy    dyz    dz2    dxz    dx2    tot
  1  0.000  0.000  0.000  0.000  0.060  0.000  0.096  0.060  0.032  0.248
  2  0.000  0.000  0.000  0.000  0.060  0.000  0.096  0.060  0.032  0.248
  3  0.000  0.000  0.000  0.000  0.060  0.000  0.096  0.060  0.032  0.248
  4  0.000  0.000  0.000  0.000  0.060  0.000  0.096  0.060  0.032  0.248
tot  0.000  0.000  0.000  0.000  0.240  0.000  0.383  0.240  0.128  0.992

band  20 # energy    2.07182074 # occ.  2.00000000

ion      s     py     pz     px    dxy    dyz    dz2    dxz    dx2    tot
  1  0.000  0.000  0.000  0.000  0.020  0.220  0.005  0.000  0.002  0.248
  2  0.000  0.000  0.000  0.000  0.020  0.220  0.005  0.000  0.002  0.248
  3  0.000  0.000  0.000  0.000  0.020  0.220  0.005  0.000  0.002  0.248
  4  0.000  0.000  0.000  0.000  0.020  0.220  0.005  0.000  0.002  0.248
tot  0.000  0.000  0.000  0.000  0.079  0.880  0.021  0.002  0.010  0.993

band  21 # energy    2.07182074 # occ.  2.00000000

ion      s     py     pz     px    dxy    dyz    dz2    dxz    dx2    tot
  1  0.000  0.000  0.000  0.000  0.000  0.220  0.000  0.020  0.008  0.248
  2  0.000  0.000  0.000  0.000  0.000  0.220  0.000  0.020  0.008  0.248
  3  0.000  0.000  0.000  0.000  0.000  0.220  0.000  0.020  0.008  0.248
  4  0.000  0.000  0.000  0.000  0.000  0.220  0.000  0.020  0.008  0.248
tot  0.000  0.000  0.000  0.000  0.002  0.880  0.000  0.079  0.031  0.993

band  22 # energy    2.96082744 # occ.  2.00000000

ion      s     py     pz     px    dxy    dyz    dz2    dxz    dx2    tot
  1  0.033  0.001  0.001  0.050  0.031  0.000  0.013  0.031  0.038  0.197
  2  0.033  0.001  0.001  0.050  0.031  0.000  0.013  0.031  0.038  0.197
  3  0.033  0.001  0.001  0.050  0.031  0.000  0.013  0.031  0.038  0.197
  4  0.033  0.001  0.001  0.050  0.031  0.000  0.013  0.031  0.038  0.197
tot  0.132  0.003  0.003  0.201  0.124  0.000  0.050  0.124  0.150  0.787

band  23 # energy    6.29033240 # occ.  0.00000000

ion      s     py     pz     px    dxy    dyz    dz2    dxz    dx2    tot
  1  0.013  0.020  0.083  0.001  0.007  0.004  0.012  0.030  0.002  0.171
  2  0.019  0.018  0.081  0.002  0.007  0.005  0.009  0.030  0.001  0.172
  3  0.019  0.018  0.081  0.002  0.007  0.005  0.009  0.030  0.001  0.172
  4  0.013  0.020  0.083  0.001  0.007  0.004  0.012  0.030  0.002  0.171
tot  0.063  0.077  0.327  0.007  0.028  0.017  0.041  0.118  0.006  0.685

band  24 # energy    6.29033240 # occ.  0.00000000

ion      s     py     pz     px    dxy    dyz    dz2    dxz    dx2    tot
  1  0.019  0.081  0.018  0.002  0.030  0.005  0.004  0.007  0.006  0.172
  2  0.013  0.083  0.020  0.001  0.030  0.004  0.007  0.007  0.006  0.171
  3  0.013  0.083  0.020  0.001  0.030  0.004  0.007  0.007  0.006  0.171
  4  0.019  0.081  0.018  0.002  0.030  0.005  0.004  0.007  0.006  0.172
tot  0.063  0.327  0.077  0.007  0.118  0.017  0.022  0.028  0.025  0.685

band  25 # energy   11.83732798 # occ.  0.00000000

ion      s     py     pz     px    dxy    dyz    dz2    dxz    dx2    tot
  1  0.047  0.016  0.005  0.010  0.002  0.000  0.038  0.001  0.044  0.163
  2  0.071  0.020  0.010  0.016  0.002  0.001  0.021  0.001  0.042  0.183
  3  0.071  0.020  0.010  0.016  0.002  0.001  0.021  0.001  0.042  0.183
  4  0.047  0.016  0.005  0.010  0.002  0.000  0.038  0.001  0.044  0.163
tot  0.235  0.071  0.030  0.052  0.008  0.002  0.118  0.004  0.172  0.691

band  26 # energy   11.83733084 # occ.  0.00000000

ion      s     py     pz     px    dxy    dyz    dz2    dxz    dx2    tot
  1  0.071  0.010  0.020  0.016  0.001  0.001  0.056  0.002  0.007  0.183
  2  0.046  0.005  0.016  0.010  0.001  0.000  0.072  0.002  0.009  0.163
  3  0.046  0.005  0.016  0.010  0.001  0.000  0.072  0.002  0.009  0.163
  4  0.071  0.010  0.020  0.016  0.001  0.001  0.056  0.002  0.007  0.183
tot  0.234  0.030  0.071  0.053  0.004  0.002  0.257  0.008  0.032  0.691


 k-point    3 :    0.41666667 0.08333333 0.08333333     weight = 0.11111111

band   1 # energy   -3.43260709 # occ.  2.00000000

ion      s     py     pz     px    dxy    dyz    dz2    dxz    dx2    tot
  1  0.117  0.001  0.001  0.023  0.001  0.000  0.002  0.001  0.005  0.151
  2  0.117  0.001  0.001  0.023  0.001  0.000  0.002  0.001  0.005  0.151
  3  0.117  0.001  0.001  0.023  0.001  0.000  0.002  0.001  0.005  0.151
  4  0.117  0.001  0.001  0.023  0.001  0.000  0.002  0.001  0.005  0.151
tot  0.469  0.004  0.004  0.094  0.003  0.000  0.007  0.003  0.020  0.603

band   2 # energy   -1.96997013 # occ.  2.00000000

ion      s     py     pz     px    dxy    dyz    dz2    dxz    dx2    tot
  1  0.078  0.001  0.001  0.031  0.002  0.000  0.012  0.002  0.037  0.164
  2  0.078  0.001  0.001  0.031  0.002  0.000  0.012  0.002  0.037  0.164
  3  0.078  0.001  0.001  0.031  0.002  0.000  0.012  0.002  0.037  0.164
  4  0.078  0.001  0.001  0.031  0.002  0.000  0.012  0.002  0.037  0.164
tot  0.313  0.003  0.003  0.125  0.007  0.001  0.049  0.007  0.147  0.654

band   3 # energy   -0.45217930 # occ.  2.00000000

ion      s     py     pz     px    dxy    dyz    dz2    dxz    dx2    tot
  1  0.002  0.001  0.000  0.007  0.000  0.000  0.115  0.003  0.089  0.217
  2  0.002  0.001  0.000  0.007  0.000  0.000  0.115  0.003  0.090  0.217
  3  0.002  0.001  0.000  0.007  0.000  0.000  0.115  0.003  0.090  0.217
  4  0.002  0.001  0.000  0.007  0.000  0.000  0.115  0.003  0.089  0.217
tot  0.006  0.003  0.000  0.029  0.002  0.000  0.458  0.012  0.358  0.868

band   4 # energy   -0.45217930 # occ.  2.00000000

ion      s     py     pz     px    dxy    dyz    dz2    dxz    dx2    tot
  1  0.002  0.000  0.001  0.007  0.003  0.000  0.183  0.000  0.021  0.217
  2  0.002  0.000  0.001  0.007  0.003  0.000  0.183  0.000  0.021  0.217
  3  0.002  0.000  0.001  0.007  0.003  0.000  0.183  0.000  0.021  0.217
  4  0.002  0.000  0.001  0.007  0.003  0.000  0.183  0.000  0.021  0.217
tot  0.006  0.000  0.003  0.029  0.012  0.000  0.734  0.002  0.082  0.868

band   5 # energy   -0.21816161 # occ.  2.00000000

ion      s     py     pz     px    dxy    dyz    dz2    dxz    dx2    tot
  1  0.000  0.000  0.000  0.000  0.001  0.228  0.000  0.001  0.000  0.232
  2  0.000  0.000  0.000  0.000  0.001  0.228  0.000  0.001  0.000  0.232
  3  0.000  0.000  0.000  0.000  0.001  0.228  0.000  0.001  0.000  0.232
  4  0.000  0.000  0.000  0.000  0.001  0.228  0.000  0.001  0.000  0.232
tot  0.000  0.002  0.002  0.000  0.006  0.913  0.001  0.006  0.002  0.930

band   6 # energy   -0.14117587 # occ.  2.00000000

ion      s     py     pz     px    dxy    dyz    dz2    dxz    dx2    tot
  1  0.001  0.009  0.000  0.001  0.208  0.002  0.002  0.003  0.001  0.227
  2  0.001  0.009  0.000  0.001  0.208  0.002  0.002  0.003  0.001  0.227
  3  0.001  0.009  0.000  0.001  0.208  0.002  0.002  0.003  0.001  0.227
  4  0.001  0.009  0.000  0.001  0.208  0.002  0.002  0.003  0.001  0.227
tot  0.004  0.038  0.001  0.003  0.832  0.008  0.006  0.011  0.005  0.906

band   7 # energy   -0.14117586 # occ.  2.00000000

ion      s     py     pz     px    dxy    dyz    dz2    dxz    dx2    tot
  1  0.001  0.000  0.009  0.001  0.003  0.002  0.003  0.208  0.000  0.227
  2  0.001  0.000  0.009  0.001  0.003  0.002  0.003  0.208  0.000  0.227
  3  0.001  0.000  0.009  0.001  0.003  0.002  0.003  0.208  0.000  0.227
  4  0.001  0.000  0.009  0.001  0.003  0.002  0.003  0.208  0.000  0.227
tot  0.004  0.001  0.038  0.003  0.011  0.008  0.010  0.832  0.001  0.906

band   8 # energy    0.11806148 # occ.  2.00000000

ion      s     py     pz     px    dxy    dyz    dz2    dxz    dx2    tot
  1  0.000  0.000  0.000  0.000  0.004  0.227  0.000  0.004  0.000  0.236
  2  0.000  0.000  0.000  0.000  0.004  0.227  0.000  0.004  0.000  0.236
  3  0.000  0.000  0.000  0.000  0.004  0.227  0.000  0.004  0.000  0.236