<?xml version="1.0" encoding="ISO-8859-1"?>
<modeling>
 <generator>
  <i name="program"" type=""stringvasp</i>
  <i name="version"" type=""string4.6.26 </i>
  <i name="subversion"" type=""string15Dec04 complex  serial</i>
  <i name="platform"" type=""stringLinuxPgi</i>
  <i name="date"" type=""string2009 11 30</i>
  <i name="time"" type=""string23:48:29</i>
 </generator>
 <incar>
  <i type=""string"" nameSYSTEM"" Au, FCC</i>
  <i type=""int"" nameISTART""     0</i>
  <i type=""string"" namePREC""normal ! set fft mesh, cutoffs</i>
  <i type=""string"" nameALGO"" Fast   ! use fast algorithm for electro</i>
  <i type=""int"" nameISPIN""     1</i>
  <i name="EDIFF""      0.00010000</i>
  <i name="EDIFFG""      0.00100000</i>
  <i type=""int"" nameIBRION""     1</i>
  <i type=""int"" nameNFREE""     5</i>
  <i type=""int"" nameNSW""    10</i>
  <i type=""int"" nameISIF""     3</i>
  <i name="ENCUT""    350.00000000</i>
  <i name="POTIM""      0.35000000</i>
  <i type=""int"" nameISMEAR""     0</i>
  <i name="SIGMA""      0.10000000</i>
  <i type=""int"" nameNWRITE""     1</i>
  <i type=""logical"" nameLWAVE"" F  </i>
  <i type=""logical"" nameLCHARG"" T  </i>
  <i type=""logical"" nameLVTOT"" F  </i>
  <i type=""logical"" nameLORBIT"" F  </i>
 </incar>
 <kpoints>
  <generation param="Monkhorst-Pack">
   <v type=""int"" namedivisions""       6       6       6</v>
   <v name="usershift""      0.00000000      0.00000000      0.00000000</v>
   <v name="genvec1""      0.16666667      0.00000000      0.00000000</v>
   <v name="genvec2""      0.00000000      0.16666667      0.00000000</v>
   <v name="genvec3""      0.00000000      0.00000000      0.16666667</v>
   <v name="shift""      0.50000000      0.50000000      0.50000000</v>
  </generation>
  <varray name="kpointlist"">
   <v>       0.08333333      0.08333333      0.08333333</v>
   <v>       0.25000000      0.08333333      0.08333333</v>
   <v>       0.41666667      0.08333333      0.08333333</v>
   <v>       0.25000000      0.25000000      0.08333333</v>
   <v>       0.41666667      0.25000000      0.08333333</v>
   <v>       0.41666667      0.41666667      0.08333333</v>
   <v>       0.25000000      0.25000000      0.25000000</v>
   <v>       0.41666667      0.25000000      0.25000000</v>
   <v>       0.41666667      0.41666667      0.25000000</v>
   <v>       0.41666667      0.41666667      0.41666667</v>
  </varray>
  <varray name="weights"">
   <v>       0.03703704</v>
   <v>       0.11111111</v>
   <v>       0.11111111</v>
   <v>       0.11111111</v>
   <v>       0.22222222</v>
   <v>       0.11111111</v>
   <v>       0.03703704</v>
   <v>       0.11111111</v>
   <v>       0.11111111</v>
   <v>       0.03703704</v>
  </varray>
 </kpoints>
 <parameters>
  <separator name="general"">
   <i type=""string"" nameSYSTEM""Au, FCC</i>
   <i type=""logical"" nameLCOMPAT"" F  </i>
  </separator>
  <separator name="electronic"">
   <i type=""string"" namePREC""normal</i>
   <i name="ENMAX""    350.00000000</i>
   <i name="ENAUG""    516.45600000</i>
   <i name="EDIFF""      0.00010000</i>
   <i type=""int"" nameIALGO""    68</i>
   <i type=""int"" nameIWAVPR""    11</i>
   <i type=""int"" nameNBANDS""    26</i>
   <i name="NELECT""     44.00000000</i>
   <separator name="electronic smearing"">
    <i type=""int"" nameISMEAR""     0</i>
    <i name="SIGMA""      0.10000000</i>
   </separator>
   <separator name="electronic projectors"">
    <i type=""logical"" nameLREAL"" F  </i>
    <v name="ROPT""      0.00000000</v>
    <i type=""int"" nameLMAXPAW""  -100</i>
    <i type=""int"" nameLMAXMIX""     2</i>
   </separator>
   <separator name="electronic startup"">
    <i type=""int"" nameISTART""     0</i>
    <i type=""int"" nameICHARG""     2</i>
    <i type=""int"" nameINIWAV""     1</i>
   </separator>
   <separator name="electronic spin"">
    <i type=""int"" nameISPIN""     1</i>
    <i type=""logical"" nameLNONCOLLINEAR"" F  </i>
    <v name="MAGMOM""      1.00000000      1.00000000      1.00000000      1.00000000</v>
    <i name="NUPDOWN""     -1.00000000</i>
    <i type=""logical"" nameLSORBIT"" F  </i>
    <v name="SAXIS""      0.00000000      0.00000000      1.00000000</v>
    <i type=""logical"" nameLSPIRAL"" F  </i>
    <v name="QSPIRAL""      0.00000000      0.00000000      0.00000000</v>
    <i type=""logical"" nameLZEROZ"" F  </i>
   </separator>
   <separator name="electronic exchange-correlation"">
    <i type=""string"" nameGGA""--</i>
    <i type=""int"" nameVOSKOWN""     0</i>
    <i type=""logical"" nameLASPH"" F  </i>
    <i type=""logical"" nameLMETAGGA"" F  </i>
    <i type=""string"" nameGGA2""--</i>
   </separator>
   <separator name="electronic convergence"">
    <i type=""int"" nameNELM""    60</i>
    <i type=""int"" nameNELMDL""    -5</i>
    <i type=""int"" nameNELMIN""     2</i>
    <i name="ENINI""    350.00000000</i>
    <separator name="electronic convergence detail"">
     <i type=""logical"" nameLDIAG"" T  </i>
     <i name="WEIMIN""      0.00100000</i>
     <i name="EBREAK""      0.00000096</i>
     <i name="DEPER""      0.30000000</i>
     <i type=""int"" nameNRMM""     4</i>
     <i name="TIME""      0.10000000</i>
    </separator>
   </separator>
   <separator name="electronic mixer"">
    <i name="AMIX""      0.40000000</i>
    <i name="BMIX""      1.00000000</i>
    <i name="AMIN""      0.10000000</i>
    <i name="AMIX_MAG""      1.60000000</i>
    <i name="BMIX_MAG""      1.00000000</i>
    <separator name="electronic mixer details"">
     <i type=""int"" nameIMIX""     4</i>
     <i type=""int"" nameMAXMIX""   -45</i>
     <i name="WC""    100.00000000</i>
     <i type=""int"" nameINIMIX""     1</i>
     <i type=""int"" nameMIXPRE""     1</i>
     <i type=""int"" nameMREMOVE""     5</i>
    </separator>
   </separator>
   <separator name="electronic dipolcorrection"">
    <i type=""int"" nameIDIPOL""     0</i>
    <i type=""logical"" nameLDIPOL"" F  </i>
    <v name="DIPOL""   -100.00000000</v>
    <i name="EFIELD""      0.00000000</i>
   </separator>
  </separator>
  <separator name="grids"">
   <i type=""int"" nameNGX""    18</i>
   <i type=""int"" nameNGY""    18</i>
   <i type=""int"" nameNGZ""    18</i>
   <i type=""int"" nameNGXF""    36</i>
   <i type=""int"" nameNGYF""    36</i>
   <i type=""int"" nameNGZF""    36</i>
   <i type=""logical"" nameADDGRID"" F  </i>
  </separator>
  <separator name="ionic"">
   <i type=""int"" nameNSW""    10</i>
   <i type=""int"" nameIBRION""     1</i>
   <i type=""int"" nameISIF""     3</i>
   <i name="PSTRESS""      0.00000000</i>
   <i name="EDIFFG""      0.00100000</i>
   <i type=""int"" nameNFREE""     5</i>
   <i name="POTIM""      0.35000000</i>
   <i name="SMASS""     -3.00000000</i>
  </separator>
  <separator name="ionic md"">
   <i name="TEBEG""      0.00010000</i>
   <i name="TEEND""      0.00010000</i>
   <i type=""int"" nameNBLOCK""     1</i>
   <i type=""int"" nameKBLOCK""    10</i>
   <i type=""int"" nameNPACO""   256</i>
   <i name="APACO""     16.00000000</i>
  </separator>
  <separator name="symmetry"">
   <i type=""int"" nameISYM""     2</i>
   <i name="SYMPREC""      0.00001000</i>
  </separator>
  <separator name="dos"">
   <i type=""logical"" nameLORBIT"" F  </i>
   <v name="RWIGS""     -1.00000000</v>
   <i type=""int"" nameNEDOS""   301</i>
   <i name="EMIN""     10.00000000</i>
   <i name="EMAX""    -10.00000000</i>
  </separator>
  <separator name="writing"">
   <i type=""int"" nameNWRITE""     1</i>
   <i type=""logical"" nameLWAVE"" F  </i>
   <i type=""logical"" nameLCHARG"" T  </i>
   <i type=""logical"" nameLPARD"" F  </i>
   <i type=""logical"" nameLVTOT"" F  </i>
   <i type=""logical"" nameLELF"" F  </i>
   <i type=""logical"" nameLOPTICS"" F  </i>
   <i name="STM""      0.00000000</i>
  </separator>
  <separator name="performance"">
   <i type=""int"" nameNPAR""     1</i>
   <i type=""int"" nameNSIM""     4</i>
   <i type=""int"" nameNBLK""    64</i>
   <i type=""logical"" nameLPLANE"" T  </i>
   <i type=""logical"" nameLCRITICAL_MEM"" F  </i>
   <i type=""logical"" nameLSCALAPACK"" F  </i>
   <i type=""logical"" nameLSCALU"" F  </i>
   <i type=""logical"" nameLASYNC"" F  </i>
  </separator>
  <separator name="miscellaneous"">
   <i type=""int"" nameIDIOT""     3</i>
   <i type=""logical"" nameLMUSIC"" F  </i>
   <v name="POMASS""     63.54600000</v>
   <i type=""logical"" nameLCORR"" T  </i>
  </separator>
  <i type=""logical"" nameLREAL_COMPAT"" F  </i>
  <i type=""logical"" nameGGA_COMPAT"" T  </i>
  <i type=""logical"" nameLBERRY"" F  </i>
  <i type=""int"" nameICORELEVEL""     0</i>
  <i type=""logical"" nameLDAU"" F  </i>
  <i type=""int"" nameI_CONSTRAINED_M""     0</i>
 </parameters>
 <atominfo>
  <atoms>       4</atoms>
  <types>       1</types>
  <array name="atoms"">
   <dimension dim="1">ion</dimension>
   <field type="string">element</field>
   <field type="int">atomtype</field>
   <set>
    <rc><c>Cu</c><c>   1</c></rc>
    <rc><c>Cu</c><c>   1</c></rc>
    <rc><c>Cu</c><c>   1</c></rc>
    <rc><c>Cu</c><c>   1</c></rc>
   </set>
  </array>
  <array name="atomtypes"">
   <dimension dim="1">type</dimension>
   <field type="int">atomspertype</field>
   <field type="string">element</field>
   <field>mass</field>
   <field>valence</field>
   <field type="string">pseudopotential</field>
   <set>
    <rc><c>   4</c><c>Cu</c><c>     63.54600000</c><c>     11.00000000</c><c> PAW_GGA Cu 05Jan2001                   </c></rc>
   </set>
  </array>
 </atominfo>
 <structure name="initialpos"">
  <crystal>
   <varray name="basis"">
    <v>       3.63651646      0.00000000      0.00000000</v>
    <v>       0.00000000      3.63651646      0.00000000</v>
    <v>       0.00000000      0.00000000      3.63651646</v>
   </varray>
   <i name="volume""     48.09020974</i>
   <varray name="rec_basis"">
    <v>       0.27498844      0.00000000      0.00000000</v>
    <v>       0.00000000      0.27498844      0.00000000</v>
    <v>       0.00000000      0.00000000      0.27498844</v>
   </varray>
  </crystal>
  <varray name="positions"">
   <v>       0.00000000      0.00000000      0.00000000</v>
   <v>       0.50000000      0.50000000      0.00000000</v>
   <v>       0.50000000      0.00000000      0.50000000</v>
   <v>       0.00000000      0.50000000      0.50000000</v>
  </varray>
 </structure>
 <calculation>
  <scstep>
   <time name="dav""    1.54    1.38</time>
   <time name="total""    1.64    1.49</time>
   <energy>
    <i name="alphaZ""    423.22193955</i>
    <i name="ewald""  -4393.51549118</i>
    <i name="hartreedc""  -1318.90484387</i>
    <i name="XCdc""    174.74962741</i>
    <i name="pawpsdc""   4331.76634676</i>
    <i name="pawaedc""  -4909.96570799</i>
    <i name="eentropy""     -0.01838272</i>
    <i name="bandstr""    357.13554406</i>
    <i name="atom""   5572.17933418</i>
    <i name="e_fr_energy""    236.64836619</i>
    <i name="e_wo_entrp""    236.66674892</i>
    <i name="e_0_energy""    236.65755755</i>
   </energy>
  </scstep>
  <scstep>
   <time name="dav""    1.55    1.37</time>
   <time name="total""    1.56    1.38</time>
   <energy>
    <i name="e_fr_energy""     -5.48655019</i>
    <i name="e_wo_entrp""     -5.47454500</i>
    <i name="e_0_energy""     -5.48054759</i>
   </energy>
  </scstep>
  <scstep>
   <time name="dav""    1.57    1.38</time>
   <time name="total""    1.57    1.39</time>
   <energy>
    <i name="e_fr_energy""    -18.16706828</i>
    <i name="e_wo_entrp""    -18.15323577</i>
    <i name="e_0_energy""    -18.16015202</i>
   </energy>
  </scstep>
  <scstep>
   <time name="dav""    1.57    1.40</time>
   <time name="total""    1.58    1.40</time>
   <energy>
    <i name="e_fr_energy""    -18.27277807</i>
    <i name="e_wo_entrp""    -18.25895334</i>
    <i name="e_0_energy""    -18.26586570</i>
   </energy>
  </scstep>
  <scstep>
   <time name="dav""    1.59    1.40</time>
   <time name="total""    1.71    1.52</time>
   <energy>
    <i name="e_fr_energy""    -18.27333764</i>
    <i name="e_wo_entrp""    -18.25951488</i>
    <i name="e_0_energy""    -18.26642626</i>
   </energy>
  </scstep>
  <scstep>
   <time name="diag""    0.28    0.26</time>
   <time name="diis""    1.25    1.16</time>
   <time name="orth""    0.03    0.02</time>
   <time name="total""    1.78    1.67</time>
   <energy>
    <i name="e_fr_energy""    -16.24402815</i>
    <i name="e_wo_entrp""    -16.24305793</i>
    <i name="e_0_energy""    -16.24354304</i>
   </energy>
  </scstep>
  <scstep>
   <time name="diag""    0.28    0.26</time>
   <time name="diis""    1.24    1.17</time>
   <time name="orth""    0.03    0.03</time>
   <time name="total""    1.77    1.68</time>
   <energy>
    <i name="e_fr_energy""    -14.95339711</i>
    <i name="e_wo_entrp""    -14.93167194</i>
    <i name="e_0_energy""    -14.94253453</i>
   </energy>
  </scstep>
  <scstep>
   <time name="diag""    0.26    0.26</time>
   <time name="diis""    1.14    1.14</time>
   <time name="orth""    0.03    0.02</time>
   <time name="total""    1.66    1.65</time>
   <energy>
    <i name="e_fr_energy""    -14.89839241</i>
    <i name="e_wo_entrp""    -14.87642999</i>
    <i name="e_0_energy""    -14.88741120</i>
   </energy>
  </scstep>
  <scstep>
   <time name="diag""    0.27    0.27</time>
   <time name="diis""    1.21    1.22</time>
   <time name="orth""    0.03    0.03</time>
   <time name="total""    1.74    1.74</time>
   <energy>
    <i name="e_fr_energy""    -14.89487488</i>
    <i name="e_wo_entrp""    -14.87317843</i>
    <i name="e_0_energy""    -14.88402665</i>
   </energy>
  </scstep>
  <scstep>
   <time name="diag""    0.27    0.27</time>
   <time name="diis""    0.73    0.74</time>
   <time name="orth""    0.03    0.03</time>
   <time name="total""    1.14    1.14</time>
   <energy>
    <i name="alphaZ""    423.22193955</i>
    <i name="ewald""  -4393.51549118</i>
    <i name="hartreedc""  -1232.39792001</i>
    <i name="XCdc""    170.44726300</i>
    <i name="pawpsdc""   4384.80693406</i>
    <i name="pawaedc""  -4966.27486996</i>
    <i name="eentropy""     -0.02173530</i>
    <i name="bandstr""     26.65960592</i>
    <i name="atom""   5572.17933418</i>
    <i name="e_fr_energy""    -14.89493974</i>
    <i name="e_wo_entrp""    -14.87320444</i>
    <i name="e_0_energy""    -14.88407209</i>
   </energy>
  </scstep>
  <structure>
   <crystal>
    <varray name="basis"">
     <v>       3.63651646      0.00000000      0.00000000</v>
     <v>       0.00000000      3.63651646      0.00000000</v>
     <v>       0.00000000      0.00000000      3.63651646</v>
    </varray>
    <i name="volume""     48.09020974</i>
    <varray name="rec_basis"">
     <v>       0.27498844      0.00000000      0.00000000</v>
     <v>       0.00000000      0.27498844      0.00000000</v>
     <v>       0.00000000      0.00000000      0.27498844</v>
    </varray>
   </crystal>
   <varray name="positions"">
    <v>       0.00000000      0.00000000      0.00000000</v>
    <v>       0.50000000      0.50000000      0.00000000</v>
    <v>       0.50000000      0.00000000      0.50000000</v>
    <v>       0.00000000      0.50000000      0.50000000</v>
   </varray>
  </structure>
  <varray name="forces"">
   <v>       0.00000000      0.00000000      0.00000000</v>
   <v>       0.00000000      0.00000000      0.00000000</v>
   <v>       0.00000000      0.00000000      0.00000000</v>
   <v>       0.00000000      0.00000000      0.00000000</v>
  </varray>
  <varray name="stress"">
   <v>     -19.52147480      0.00000000      0.00000000</v>
   <v>       0.00000000    -19.52147480      0.00000000</v>
   <v>       0.00000000      0.00000000    -19.52147480</v>
  </varray>
  <energy>
   <i name="e_fr_energy""    -14.89493974</i>
   <i name="e_wo_entrp""    -14.88407209</i>
   <i name="e_0_energy""     -0.02173530</i>
  </energy>
 </calculation>
 <calculation>
  <scstep>
   <time name="dav""    1.53    1.37</time>
   <time name="total""    1.76    1.59</time>
   <energy>
    <i name="alphaZ""    429.56543127</i>
    <i name="ewald""  -4415.35756317</i>
    <i name="hartreedc""  -1238.43224173</i>
    <i name="XCdc""    171.52164208</i>
    <i name="pawpsdc""   4386.02831864</i>
    <i name="pawaedc""  -4967.46082667</i>
    <i name="eentropy""     -0.01908644</i>
    <i name="bandstr""     46.88706868</i>
    <i name="atom""   5572.17933418</i>
    <i name="e_fr_energy""    -15.08792317</i>
    <i name="e_wo_entrp""    -15.06883673</i>
    <i name="e_0_energy""    -15.07837995</i>
   </energy>
  </scstep>
  <scstep>
   <time name="diag""    0.28    0.26</time>
   <time name="diis""    1.23    1.17</time>
   <time name="orth""    0.03    0.02</time>
   <time name="total""    1.76    1.68</time>
   <energy>
    <i name="e_fr_energy""    -14.96065934</i>
    <i name="e_wo_entrp""    -14.94165798</i>
    <i name="e_0_energy""    -14.95115866</i>
   </energy>
  </scstep>
  <scstep>
   <time name="diag""    0.28    0.26</time>
   <time name="diis""    1.19    1.19</time>
   <time name="orth""    0.03    0.02</time>
   <time name="total""    1.72    1.71</time>
   <energy>
    <i name="e_fr_energy""    -14.90000795</i>
    <i name="e_wo_entrp""    -14.87807127</i>
    <i name="e_0_energy""    -14.88903961</i>
   </energy>
  </scstep>
  <scstep>
   <time name="diag""    0.28    0.27</time>
   <time name="diis""    1.18    1.15</time>
   <time name="orth""    0.03    0.03</time>
   <time name="total""    1.71    1.67</time>
   <energy>
    <i name="e_fr_energy""    -14.89289050</i>
    <i name="e_wo_entrp""    -14.87094149</i>
    <i name="e_0_energy""    -14.88191600</i>
   </energy>
  </scstep>
  <scstep>
   <time name="diag""    0.27    0.27</time>
   <time name="diis""    0.74    0.74</time>
   <time name="orth""    0.03    0.03</time>
   <time name="total""    1.14    1.14</time>
   <energy>
    <i name="alphaZ""    429.56543127</i>
    <i name="ewald""  -4415.35756317</i>
    <i name="hartreedc""  -1219.98241244</i>
    <i name="XCdc""    170.55150888</i>
    <i name="pawpsdc""   4394.18643688</i>
    <i name="pawaedc""  -4976.03033465</i>
    <i name="eentropy""     -0.02196718</i>
    <i name="bandstr""     30.01677525</i>
    <i name="atom""   5572.17933418</i>
    <i name="e_fr_energy""    -14.89279099</i>
    <i name="e_wo_entrp""    -14.87082381</i>
    <i name="e_0_energy""    -14.88180740</i>
   </energy>
  </scstep>
  <structure>
   <crystal>
    <varray name="basis"">
     <v>       3.61852719      0.00000000      0.00000000</v>
     <v>       0.00000000      3.61852719      0.00000000</v>
     <v>       0.00000000      0.00000000      3.61852719</v>
    </varray>
    <i name="volume""     47.38005053</i>
    <varray name="rec_basis"">
     <v>       0.27635553      0.00000000      0.00000000</v>
     <v>       0.00000000      0.27635553      0.00000000</v>
     <v>       0.00000000      0.00000000      0.27635553</v>
    </varray>
   </crystal>
   <varray name="positions"">
    <v>       0.00000000      0.00000000      0.00000000</v>
    <v>       0.50000000      0.50000000      0.00000000</v>
    <v>       0.50000000      0.00000000      0.50000000</v>
    <v>       0.00000000      0.50000000      0.50000000</v>
   </varray>
  </structure>
  <varray name="forces"">
   <v>       0.00000000      0.00000000      0.00000000</v>
   <v>       0.00000000      0.00000000      0.00000000</v>
   <v>       0.00000000      0.00000000      0.00000000</v>
   <v>       0.00000000      0.00000000      0.00000000</v>
  </varray>
  <varray name="stress"">
   <v>      17.87044353      0.00000000      0.00000000</v>
   <v>       0.00000000     17.87044353      0.00000000</v>
   <v>       0.00000000      0.00000000     17.87044353</v>
  </varray>
  <energy>
   <i name="e_fr_energy""    -14.89279099</i>
   <i name="e_wo_entrp""    -14.88180740</i>
   <i name="e_0_energy""     -0.02196718</i>
  </energy>
 </calculation>
 <calculation>
  <scstep>
   <time name="dav""    1.54    1.37</time>
   <time name="total""    1.76    1.59</time>
   <energy>
    <i name="alphaZ""    426.54942858</i>
    <i name="ewald""  -4404.99979438</i>
    <i name="hartreedc""  -1217.37354024</i>
    <i name="XCdc""    170.05481178</i>
    <i name="pawpsdc""   4394.98109335</i>
    <i name="pawaedc""  -4976.68020170</i>
    <i name="eentropy""     -0.01850517</i>
    <i name="bandstr""     20.36827490</i>
    <i name="atom""   5572.17933418</i>
    <i name="e_fr_energy""    -14.93909871</i>
    <i name="e_wo_entrp""    -14.92059354</i>
    <i name="e_0_energy""    -14.92984613</i>
   </energy>
  </scstep>
  <scstep>
   <time name="diag""    0.28    0.26</time>
   <time name="diis""    1.23    1.16</time>
   <time name="orth""    0.03    0.02</time>
   <time name="total""    1.76    1.68</time>
   <energy>
    <i name="e_fr_energy""    -14.91118845</i>
    <i name="e_wo_entrp""    -14.88936913</i>
    <i name="e_0_energy""    -14.90027879</i>
   </energy>
  </scstep>
  <scstep>
   <time name="diag""    0.27    0.26</time>
   <time name="diis""    1.21    1.21</time>
   <time name="orth""    0.03    0.03</time>
   <time name="total""    1.73    1.72</time>
   <energy>
    <i name="e_fr_energy""    -14.89650903</i>
    <i name="e_wo_entrp""    -14.87474910</i>
    <i name="e_0_energy""    -14.88562907</i>
   </energy>
  </scstep>
  <scstep>
   <time name="diag""    0.27    0.27</time>
   <time name="diis""    0.95    0.90</time>
   <time name="orth""    0.03    0.02</time>
   <time name="total""    1.47    1.41</time>
   <energy>
    <i name="e_fr_energy""    -14.89492298</i>
    <i name="e_wo_entrp""    -14.87302188</i>
    <i name="e_0_energy""    -14.88397243</i>
   </energy>
  </scstep>
  <scstep>
   <time name="diag""    0.27    0.27</time>
   <time name="diis""    0.68    0.68</time>
   <time name="orth""    0.03    0.02</time>
   <time name="total""    1.08    1.08</time>
   <energy>
    <i name="alphaZ""    426.54942858</i>
    <i name="ewald""  -4404.99979438</i>
    <i name="hartreedc""  -1226.04981233</i>
    <i name="XCdc""    170.51082629</i>
    <i name="pawpsdc""   4390.96247663</i>
    <i name="pawaedc""  -4972.47667328</i>
    <i name="eentropy""     -0.02189462</i>
    <i name="bandstr""     28.45119101</i>
    <i name="atom""   5572.17933418</i>
    <i name="e_fr_energy""    -14.89491793</i>
    <i name="e_wo_entrp""    -14.87302331</i>
    <i name="e_0_energy""    -14.88397062</i>
   </energy>
  </scstep>
  <structure>
   <crystal>
    <varray name="basis"">
     <v>       3.62703567      0.00000000      0.00000000</v>
     <v>       0.00000000      3.62703567      0.00000000</v>
     <v>       0.00000000      0.00000000      3.62703567</v>
    </varray>
    <i name="volume""     47.71506062</i>
    <varray name="rec_basis"">
     <v>       0.27570724      0.00000000      0.00000000</v>
     <v>       0.00000000      0.27570724      0.00000000</v>
     <v>       0.00000000      0.00000000      0.27570724</v>
    </varray>
   </crystal>
   <varray name="positions"">
    <v>       0.00000000      0.00000000      0.00000000</v>
    <v>       0.50000000      0.50000000      0.00000000</v>
    <v>       0.50000000      0.00000000      0.50000000</v>
    <v>       0.00000000      0.50000000      0.50000000</v>
   </varray>
  </structure>
  <varray name="forces"">
   <v>       0.00000000      0.00000000      0.00000000</v>
   <v>       0.00000000      0.00000000      0.00000000</v>
   <v>       0.00000000      0.00000000      0.00000000</v>
   <v>       0.00000000      0.00000000      0.00000000</v>
  </varray>
  <varray name="stress"">
   <v>       4.55404743      0.00000000      0.00000000</v>
   <v>       0.00000000      4.55404743      0.00000000</v>
   <v>       0.00000000      0.00000000      4.55404743</v>
  </varray>
  <energy>
   <i name="e_fr_energy""    -14.89491793</i>
   <i name="e_wo_entrp""    -14.88397062</i>
   <i name="e_0_energy""     -0.02189462</i>
  </energy>
 </calculation>
 <calculation>
  <scstep>
   <time name="dav""    1.59    1.39</time>
   <time name="total""    1.81    1.61</time>
   <energy>
    <i name="alphaZ""    425.51146867</i>
    <i name="ewald""  -4401.42386894</i>
    <i name="hartreedc""  -1224.93481644</i>
    <i name="XCdc""    170.32902510</i>
    <i name="pawpsdc""   4390.57738969</i>
    <i name="pawaedc""  -4972.16601537</i>
    <i name="eentropy""     -0.02114196</i>
    <i name="bandstr""     25.04807534</i>
    <i name="atom""   5572.17933418</i>
    <i name="e_fr_energy""    -14.90054972</i>
    <i name="e_wo_entrp""    -14.87940777</i>
    <i name="e_0_energy""    -14.88997875</i>
   </energy>
  </scstep>
  <scstep>
   <time name="diag""    0.28    0.26</time>
   <time name="diis""    1.23    1.17</time>
   <time name="orth""    0.03    0.02</time>
   <time name="total""    1.77    1.69</time>
   <energy>
    <i name="e_fr_energy""    -14.89720583</i>
    <i name="e_wo_entrp""    -14.87522966</i>
    <i name="e_0_energy""    -14.88621774</i>
   </energy>
  </scstep>
  <scstep>
   <time name="diag""    0.28    0.26</time>
   <time name="diis""    1.24    1.17</time>
   <time name="orth""    0.04    0.02</time>
   <time name="total""    1.78    1.69</time>
   <energy>
    <i name="e_fr_energy""    -14.89538650</i>
    <i name="e_wo_entrp""    -14.87358767</i>
    <i name="e_0_energy""    -14.88448709</i>
   </energy>
  </scstep>
  <scstep>
   <time name="diag""    0.28    0.26</time>
   <time name="diis""    0.74    0.72</time>
   <time name="orth""    0.03    0.03</time>
   <time name="total""    1.27    1.24</time>
   <energy>
    <i name="e_fr_energy""    -14.89518974</i>
    <i name="e_wo_entrp""    -14.87333903</i>
    <i name="e_0_energy""    -14.88426439</i>
   </energy>
  </scstep>
  <scstep>
   <time name="diag""    0.28    0.27</time>
   <time name="diis""    0.64    0.63</time>
   <time name="orth""    0.03    0.02</time>
   <time name="total""    1.05    1.04</time>
   <energy>
    <i name="alphaZ""    425.51146867</i>
    <i name="ewald""  -4401.42386894</i>
    <i name="hartreedc""  -1227.96280989</i>
    <i name="XCdc""    170.48797958</i>
    <i name="pawpsdc""   4389.34301335</i>
    <i name="pawaedc""  -4970.85519045</i>
    <i name="eentropy""     -0.02184767</i>
    <i name="bandstr""     27.84673113</i>
    <i name="atom""   5572.17933418</i>
    <i name="e_fr_energy""    -14.89519003</i>
    <i name="e_wo_entrp""    -14.87334236</i>
    <i name="e_0_energy""    -14.88426620</i>
   </energy>
  </scstep>
  <structure>
   <crystal>
    <varray name="basis"">
     <v>       3.62998245      0.00000000      0.00000000</v>
     <v>       0.00000000      3.62998245      0.00000000</v>
     <v>       0.00000000      0.00000000      3.62998245</v>
    </varray>
    <i name="volume""     47.83145306</i>
    <varray name="rec_basis"">
     <v>       0.27548343      0.00000000      0.00000000</v>
     <v>       0.00000000      0.27548343      0.00000000</v>
     <v>       0.00000000      0.00000000      0.27548343</v>
    </varray>
   </crystal>
   <varray name="positions"">
    <v>       0.00000000      0.00000000      0.00000000</v>
    <v>       0.50000000      0.50000000      0.00000000</v>
    <v>       0.50000000      0.00000000      0.50000000</v>
    <v>       0.00000000      0.50000000      0.50000000</v>
   </varray>
  </structure>
  <varray name="forces"">
   <v>       0.00000000      0.00000000      0.00000000</v>
   <v>       0.00000000      0.00000000      0.00000000</v>
   <v>       0.00000000      0.00000000      0.00000000</v>
   <v>       0.00000000      0.00000000      0.00000000</v>
  </varray>
  <varray name="stress"">
   <v>       2.35249037      0.00000000      0.00000000</v>
   <v>       0.00000000      2.35249037      0.00000000</v>
   <v>       0.00000000      0.00000000      2.35249037</v>
  </varray>
  <energy>
   <i name="e_fr_energy""    -14.89519003</i>
   <i name="e_wo_entrp""    -14.88426620</i>
   <i name="e_0_energy""     -0.02184767</i>
  </energy>
  <eigenvalues>
   <array>
    <dimension dim="1">band</dimension>
    <dimension dim="2">kpoint</dimension>
    <dimension dim="3">spin</dimension>
    <field>eigene</field>
    <field>occ</field>
    <set>
     <set comment="spin 1">
      <set comment="kpoint 1">
       <r>  -5.3079  1.0000</r>
       <r>  -1.0883  1.0000</r>
       <r>  -1.0883  1.0000</r>
       <r>  -1.0883  1.0000</r>
       <r>  -0.6661  1.0000</r>
       <r>  -0.6661  1.0000</r>
       <r>  -0.6661  1.0000</r>
       <r>   0.5753  1.0000</r>
       <r>   0.6712  1.0000</r>
       <r>   0.6712  1.0000</r>
       <r>   1.4212  1.0000</r>
       <r>   1.4212  1.0000</r>
       <r>   1.8349  1.0000</r>
       <r>   1.8349  1.0000</r>
       <r>   1.8349  1.0000</r>
       <r>   1.8965  1.0000</r>
       <r>   1.8965  1.0000</r>
       <r>   1.8965  1.0000</r>
       <r>   2.0911  1.0000</r>
       <r>   2.0911  1.0000</r>
       <r>   2.0911  1.0000</r>
       <r>   5.0927  0.0000</r>
       <r>   5.0927  0.0000</r>
       <r>   5.0927  0.0000</r>
       <r>  11.4877  0.0000</r>
       <r>  11.4877  0.0000</r>
      </set>
      <set comment="kpoint 2">
       <r>  -4.6556  1.0000</r>
       <r>  -1.1787  1.0000</r>
       <r>  -0.8127  1.0000</r>
       <r>  -0.8127  1.0000</r>
       <r>  -0.5038  1.0000</r>
       <r>  -0.4868  1.0000</r>
       <r>  -0.4868  1.0000</r>
       <r>   0.4138  1.0000</r>
       <r>   0.7964  1.0000</r>
       <r>   0.8014  1.0000</r>
       <r>   1.1446  1.0000</r>
       <r>   1.1446  1.0000</r>
       <r>   1.2812  1.0000</r>
       <r>   1.4488  1.0000</r>
       <r>   1.5080  1.0000</r>
       <r>   1.7006  1.0000</r>
       <r>   1.7114  1.0000</r>
       <r>   1.7114  1.0000</r>
       <r>   1.9871  1.0000</r>
       <r>   2.0718  1.0000</r>
       <r>   2.0718  1.0000</r>
       <r>   2.9608  1.0000</r>
       <r>   6.2903  0.0000</r>
       <r>   6.2903  0.0000</r>
       <r>  11.8373  0.0000</r>
       <r>  11.8373  0.0000</r>
      </set>
      <set comment="kpoint 3">
       <r>  -3.4326  1.0000</r>
       <r>  -1.9700  1.0000</r>
       <r>  -0.4522  1.0000</r>
       <r>  -0.4522  1.0000</r>
       <r>  -0.2182  1.0000</r>
       <r>  -0.1412  1.0000</r>
       <r>  -0.1412  1.0000</r>
       <r>   0.1181  1.0000</r>
       <r>   0.4247  1.0000</r>
       <r>   0.4247  1.0000</r>
       <r>   0.8833  1.0000</r>
       <r>   0.9040  1.0000</r>
       <r>   1.0500  1.0000</r>
       <r>   1.2787  1.0000</r>
       <r>   1.3780  1.0000</r>
       <r>   1.4470  1.0000</r>
       <r>   1.4470  1.0000</r>
       <r>   1.6576  1.0000</r>
       <r>   1.7600  1.0000</r>
       <r>   1.8310  1.0000</r>
       <r>   2.0644  1.0000</r>
       <r>   2.0644  1.0000</r>
       <r>   7.9925  0.0000</r>
       <r>   7.9925  0.0000</r>
       <r>  10.0817  0.0000</r>
       <r>  10.0817  0.0000</r>
      </set>
      <set comment="kpoint 4">
       <r>  -4.0317  1.0000</r>
       <r>  -0.8558  1.0000</r>
       <r>  -0.8558  1.0000</r>
       <r>  -0.6047  1.0000</r>
       <r>  -0.3570  1.0000</r>
       <r>  -0.3460  1.0000</r>
       <r>  -0.3460  1.0000</r>
       <r>   0.3559  1.0000</r>
       <r>   0.7839  1.0000</r>
       <r>   0.7839  1.0000</r>
       <r>   0.7961  1.0000</r>
       <r>   0.8490  1.0000</r>
       <r>   0.8635  1.0000</r>
       <r>   1.2817  1.0000</r>
       <r>   1.5189  1.0000</r>
       <r>   1.5737  1.0000</r>
       <r>   1.5737  1.0000</r>
       <r>   1.5902  1.0000</r>
       <r>   1.9429  1.0000</r>
       <r>   1.9429  1.0000</r>
       <r>   1.9636  1.0000</r>
       <r>   3.9654  0.0000</r>
       <r>   3.9654  0.0000</r>
       <r>   7.2064  0.0000</r>
       <r>   9.5525  0.0000</r>
       <r>  12.3055  0.0000</r>
      </set>
      <set comment="kpoint 5">
       <r>  -2.8789  1.0000</r>
       <r>  -1.5441  1.0000</r>
       <r>  -0.4158  1.0000</r>
       <r>  -0.3165  1.0000</r>
       <r>  -0.1853  1.0000</r>
       <r>  -0.1008  1.0000</r>
       <r>  -0.0842  1.0000</r>
       <r>   0.1625  1.0000</r>
       <r>   0.2597  1.0000</r>
       <r>   0.4310  1.0000</r>
       <r>   0.5641  1.0000</r>
       <r>   0.7202  1.0000</r>
       <r>   1.0105  1.0000</r>
       <r>   1.2762  1.0000</r>
       <r>   1.3292  1.0000</r>
       <r>   1.3498  1.0000</r>
       <r>   1.3754  1.0000</r>
       <r>   1.6946  1.0000</r>
       <r>   1.8785  1.0000</r>
       <r>   1.8792  1.0000</r>
       <r>   1.8850  1.0000</r>
       <r>   2.4588  1.0000</r>
       <r>   5.3127  0.0000</r>
       <r>   7.0258  0.0000</r>
       <r>   8.9411  0.0000</r>
       <r>  10.8518  0.0000</r>
      </set>
      <set comment="kpoint 6">
       <r>  -1.9170  1.0000</r>
       <r>  -0.9352  1.0000</r>
       <r>  -0.9352  1.0000</r>
       <r>  -0.5186  1.0000</r>
       <r>   0.1060  1.0000</r>
       <r>   0.1298  1.0000</r>
       <r>   0.1298  1.0000</r>
       <r>   0.1917  1.0000</r>
       <r>   0.3234  1.0000</r>
       <r>   0.3234  1.0000</r>
       <r>   0.3581  1.0000</r>
       <r>   0.5870  1.0000</r>
       <r>   0.9933  1.0000</r>
       <r>   1.1486  1.0000</r>
       <r>   1.1527  1.0000</r>
       <r>   1.1527  1.0000</r>
       <r>   1.3538  1.0000</r>
       <r>   1.6008  1.0000</r>
       <r>   1.6008  1.0000</r>
       <r>   1.6821  1.0000</r>
       <r>   2.4045  1.0000</r>
       <r>   3.3852  0.8342</r>
       <r>   3.3852  0.8342</r>
       <r>   4.8292  0.0000</r>
       <r>  10.3225  0.0000</r>
       <r>  12.2384  0.0000</r>
      </set>
      <set comment="kpoint 7">
       <r>  -3.4571  1.0000</r>
       <r>  -0.7299  1.0000</r>
       <r>  -0.7299  1.0000</r>
       <r>  -0.7299  1.0000</r>
       <r>  -0.1740  1.0000</r>
       <r>  -0.1740  1.0000</r>
       <r>  -0.1740  1.0000</r>
       <r>   0.3893  1.0000</r>
       <r>   0.6632  1.0000</r>
       <r>   0.6632  1.0000</r>
       <r>   0.6632  1.0000</r>
       <r>   0.7812  1.0000</r>
       <r>   0.7812  1.0000</r>
       <r>   1.2571  1.0000</r>
       <r>   1.2571  1.0000</r>
       <r>   1.2571  1.0000</r>
       <r>   1.5183  1.0000</r>
       <r>   1.5183  1.0000</r>
       <r>   2.0308  1.0000</r>
       <r>   2.0308  1.0000</r>
       <r>   2.0308  1.0000</r>
       <r>   4.5935  0.0000</r>
       <r>   4.5935  0.0000</r>
       <r>   4.5935  0.0000</r>
       <r>  10.3380  0.0000</r>
       <r>  10.3380  0.0000</r>
      </set>
      <set comment="kpoint 8">
       <r>  -2.4361  1.0000</r>
       <r>  -1.3440  1.0000</r>
       <r>  -0.6329  1.0000</r>
       <r>  -0.6329  1.0000</r>
       <r>   0.0449  1.0000</r>
       <r>   0.0449  1.0000</r>
       <r>   0.1380  1.0000</r>
       <r>   0.3473  1.0000</r>
       <r>   0.5567  1.0000</r>
       <r>   0.5686  1.0000</r>
       <r>   0.5686  1.0000</r>
       <r>   0.6925  1.0000</r>
       <r>   0.8187  1.0000</r>
       <r>   0.9897  1.0000</r>
       <r>   1.0985  1.0000</r>
       <r>   1.0985  1.0000</r>
       <r>   1.7050  1.0000</r>
       <r>   1.7816  1.0000</r>
       <r>   1.9562  1.0000</r>
       <r>   1.9562  1.0000</r>
       <r>   1.9718  1.0000</r>
       <r>   2.6539  1.0000</r>
       <r>   5.5324  0.0000</r>
       <r>   5.5324  0.0000</r>
       <r>   8.2556  0.0000</r>
       <r>   8.2556  0.0000</r>
      </set>
      <set comment="kpoint 9">
       <r>  -1.7507  1.0000</r>
       <r>  -1.1168  1.0000</r>
       <r>  -1.1168  1.0000</r>
       <r>  -0.8951  1.0000</r>
       <r>   0.2960  1.0000</r>
       <r>   0.3925  1.0000</r>
       <r>   0.3925  1.0000</r>
       <r>   0.6257  1.0000</r>
       <r>   0.6811  1.0000</r>
       <r>   0.6975  1.0000</r>
       <r>   0.6975  1.0000</r>
       <r>   0.7441  1.0000</r>
       <r>   0.8162  1.0000</r>
       <r>   0.8710  1.0000</r>
       <r>   0.8710  1.0000</r>
       <r>   0.8823  1.0000</r>
       <r>   1.6791  1.0000</r>
       <r>   1.8879  1.0000</r>
       <r>   1.8879  1.0000</r>
       <r>   1.8961  1.0000</r>
       <r>   2.2340  1.0000</r>
       <r>   3.3962  0.7926</r>
       <r>   3.3962  0.7926</r>
       <r>   4.6722  0.0000</r>
       <r>   7.9289  0.0000</r>
       <r>   9.4179  0.0000</r>
      </set>
      <set comment="kpoint 10">
       <r>  -1.5254  1.0000</r>
       <r>  -1.2506  1.0000</r>
       <r>  -1.2506  1.0000</r>
       <r>  -1.2506  1.0000</r>
       <r>   0.5167  1.0000</r>
       <r>   0.5167  1.0000</r>
       <r>   0.5167  1.0000</r>
       <r>   0.6297  1.0000</r>
       <r>   0.6297  1.0000</r>
       <r>   0.6813  1.0000</r>
       <r>   0.6813  1.0000</r>
       <r>   0.6813  1.0000</r>
       <r>   1.3626  1.0000</r>
       <r>   1.3626  1.0000</r>
       <r>   1.3626  1.0000</r>
       <r>   1.7450  1.0000</r>
       <r>   1.9178  1.0000</r>
       <r>   1.9178  1.0000</r>
       <r>   1.9966  1.0000</r>
       <r>   1.9966  1.0000</r>
       <r>   1.9966  1.0000</r>
       <r>   3.4070  0.7464</r>
       <r>   3.4070  0.7464</r>
       <r>   3.4070  0.7464</r>
       <r>   7.6492  0.0000</r>
       <r>   7.6492  0.0000</r>
      </set>
     </set>
    </set>
   </array>
  </eigenvalues>
  <dos>
   <i name="efermi""      3.45388241</i>
   <total>
    <array>
     <dimension dim="1">gridpoints</dimension>
     <dimension dim="2">spin</dimension>
     <field>energy</field>
     <field>total</field>
     <field>integrated</field>
     <set>
      <set comment="spin 1">
       <r>  -6.3079   0.0000   0.0000 </r>
       <r>  -6.2425   0.0000   0.0000 </r>
       <r>  -6.1771   0.0000   0.0000 </r>
       <r>  -6.1117   0.0000   0.0000 </r>
       <r>  -6.0463   0.0000   0.0000 </r>
       <r>  -5.9810   0.0000   0.0000 </r>
       <r>  -5.9156   0.0000   0.0000 </r>
       <r>  -5.8502   0.0000   0.0000 </r>
       <r>  -5.7848   0.0000   0.0000 </r>
       <r>  -5.7195   0.0000   0.0000 </r>
       <r>  -5.6541   0.0000   0.0000 </r>
       <r>  -5.5887   0.0000   0.0000 </r>
       <r>  -5.5233   0.0013   0.0001 </r>
       <r>  -5.4579   0.0178   0.0013 </r>
       <r>  -5.3926   0.1117   0.0086 </r>
       <r>  -5.3272   0.3136   0.0291 </r>
       <r>  -5.2618   0.3969   0.0550 </r>
       <r>  -5.1964   0.2265   0.0698 </r>
       <r>  -5.1311   0.0582   0.0736 </r>
       <r>  -5.0657   0.0067   0.0741 </r>
       <r>  -5.0003   0.0003   0.0741 </r>
       <r>  -4.9349   0.0001   0.0741 </r>
       <r>  -4.8695   0.0041   0.0743 </r>
       <r>  -4.8042   0.0564   0.0780 </r>
       <r>  -4.7388   0.3463   0.1007 </r>
       <r>  -4.6734   0.9547   0.1631 </r>
       <r>  -4.6080   1.1858   0.2406 </r>
       <r>  -4.5427   0.6644   0.2841 </r>
       <r>  -4.4773   0.1674   0.2950 </r>
       <r>  -4.4119   0.0189   0.2962 </r>
       <r>  -4.3465   0.0010   0.2963 </r>
       <r>  -4.2811   0.0007   0.2963 </r>
       <r>  -4.2158   0.0150   0.2973 </r>
       <r>  -4.1504   0.1427   0.3066 </r>
       <r>  -4.0850   0.6076   0.3464 </r>
       <r>  -4.0196   1.1634   0.4224 </r>
       <r>  -3.9543   1.0048   0.4881 </r>
       <r>  -3.8889   0.3911   0.5137 </r>
       <r>  -3.8235   0.0683   0.5182 </r>
       <r>  -3.7581   0.0053   0.5185 </r>
       <r>  -3.6927   0.0011   0.5186 </r>
       <r>  -3.6274   0.0182   0.5198 </r>
       <r>  -3.5620   0.1735   0.5311 </r>
       <r>  -3.4966   0.7550   0.5805 </r>
       <r>  -3.4312   1.5067   0.6790 </r>
       <r>  -3.3659   1.3797   0.7692 </r>
       <r>  -3.3005   0.5781   0.8070 </r>
       <r>  -3.2351   0.1101   0.8142 </r>
       <r>  -3.1697   0.0096   0.8148 </r>
       <r>  -3.1043   0.0051   0.8151 </r>
       <r>  -3.0390   0.0752   0.8200 </r>
       <r>  -2.9736   0.5329   0.8549 </r>
       <r>  -2.9082   1.6917   0.9655 </r>
       <r>  -2.8428   2.4185   1.1236 </r>
       <r>  -2.7775   1.5598   1.2256 </r>
       <r>  -2.7121   0.4530   1.2552 </r>
       <r>  -2.6467   0.0636   1.2594 </r>
       <r>  -2.5813   0.0665   1.2637 </r>
       <r>  -2.5159   0.3721   1.2880 </r>
       <r>  -2.4506   0.9843   1.3524 </r>
       <r>  -2.3852   1.1736   1.4291 </r>
       <r>  -2.3198   0.6311   1.4704 </r>
       <r>  -2.2544   0.1527   1.4804 </r>
       <r>  -2.1891   0.0199   1.4817 </r>
       <r>  -2.1237   0.0537   1.4852 </r>
       <r>  -2.0583   0.3808   1.5101 </r>
       <r>  -1.9929   1.3113   1.5958 </r>
       <r>  -1.9275   2.2367   1.7420 </r>
       <r>  -1.8622   2.0469   1.8758 </r>
       <r>  -1.7968   1.4662   1.9717 </r>
       <r>  -1.7314   1.3787   2.0618 </r>
       <r>  -1.6660   1.2412   2.1430 </r>
       <r>  -1.6007   1.6257   2.2493 </r>
       <r>  -1.5353   2.7018   2.4259 </r>
       <r>  -1.4699   2.5693   2.5939 </r>
       <r>  -1.4045   1.6184   2.6997 </r>
       <r>  -1.3391   1.6733   2.8091 </r>
       <r>  -1.2738   2.3462   2.9625 </r>
       <r>  -1.2084   3.2068   3.1721 </r>
       <r>  -1.1430   4.3733   3.4580 </r>
       <r>  -1.0776   4.7129   3.7662 </r>
       <r>  -1.0123   3.8029   4.0148 </r>
       <r>  -0.9469   4.2537   4.2929 </r>
       <r>  -0.8815   6.3644   4.7090 </r>
       <r>  -0.8161   7.1752   5.1781 </r>
       <r>  -0.7507   6.0029   5.5705 </r>
       <r>  -0.6854   5.3581   5.9208 </r>
       <r>  -0.6200   6.1117   6.3204 </r>
       <r>  -0.5546   7.0320   6.7801 </r>
       <r>  -0.4892   8.8108   7.3562 </r>
       <r>  -0.4239  10.5083   8.0432 </r>
       <r>  -0.3585  10.3704   8.7212 </r>
       <r>  -0.2931   8.9081   9.3035 </r>
       <r>  -0.2277   7.9604   9.8240 </r>
       <r>  -0.1623   9.4398  10.4411 </r>
       <r>  -0.0970  10.3281  11.1164 </r>
       <r>  -0.0316   8.0734  11.6442 </r>
       <r>   0.0338   6.4773  12.0677 </r>
       <r>   0.0992   8.6489  12.6331 </r>
       <r>   0.1645  11.0320  13.3543 </r>
       <r>   0.2299  10.5633  14.0450 </r>
       <r>   0.2953  10.8087  14.7516 </r>
       <r>   0.3607  13.5636  15.6384 </r>
       <r>   0.4261  14.7608  16.6034 </r>
       <r>   0.4914  12.8322  17.4423 </r>
       <r>   0.5568  12.4758  18.2580 </r>
       <r>   0.6222  14.7437  19.2219 </r>
       <r>   0.6876  17.0909  20.3392 </r>
       <r>   0.7529  18.7861  21.5674 </r>
       <r>   0.8183  19.2393  22.8253 </r>
       <r>   0.8837  17.1640  23.9474 </r>
       <r>   0.9491  12.7433  24.7805 </r>
       <r>   1.0145  10.0000  25.4343 </r>
       <r>   1.0798  10.0587  26.0919 </r>
       <r>   1.1452  10.8511  26.8013 </r>
       <r>   1.2106  11.1420  27.5298 </r>
       <r>   1.2760  13.1840  28.3917 </r>
       <r>   1.3413  16.7208  29.4849 </r>
       <r>   1.4067  16.7444  30.5796 </r>
       <r>   1.4721  13.4876  31.4614 </r>
       <r>   1.5375  11.5099  32.2139 </r>
       <r>   1.6029  12.2819  33.0169 </r>
       <r>   1.6682  14.4453  33.9613 </r>
       <r>   1.7336  15.4791  34.9733 </r>
       <r>   1.7990  14.9719  35.9521 </r>
       <r>   1.8644  17.9690  37.1269 </r>
       <r>   1.9297  22.0869  38.5709 </r>
       <r>   1.9951  20.3941  39.9042 </r>
       <r>   2.0605  15.0197  40.8861 </r>
       <r>   2.1259   9.2822  41.4930 </r>
       <r>   2.1913   4.3983  41.7805 </r>
       <r>   2.2566   2.0724  41.9160 </r>
       <r>   2.3220   1.5127  42.0149 </r>
       <r>   2.3874   2.1597  42.1561 </r>
       <r>   2.4528   3.3446  42.3748 </r>
       <r>   2.5181   3.0114  42.5717 </r>
       <r>   2.5835   1.7127  42.6836 </r>
       <r>   2.6489   1.3182  42.7698 </r>
       <r>   2.7143   1.1524  42.8452 </r>
       <r>   2.7797   0.5585  42.8817 </r>
       <r>   2.8450   0.2714  42.8994 </r>
       <r>   2.9104   0.6474  42.9417 </r>
       <r>   2.9758   1.1761  43.0186 </r>
       <r>   3.0412   0.9798  43.0827 </r>
       <r>   3.1065   0.3685  43.1068 </r>
       <r>   3.1719   0.0769  43.1118 </r>
       <r>   3.2373   0.2247  43.1265 </r>
       <r>   3.3027   1.4610  43.2220 </r>
       <r>   3.3681   4.3866  43.5088 </r>
       <r>   3.4334   5.9897  43.9004 </r>
       <r>   3.4988   3.7260  44.1440 </r>
       <r>   3.5642   1.0539  44.2129 </r>
       <r>   3.6296   0.1348  44.2217 </r>
       <r>   3.6949   0.0082  44.2222 </r>
       <r>   3.7603   0.0124  44.2231 </r>
       <r>   3.8257   0.1511  44.2329 </r>
       <r>   3.8911   0.8328  44.2874 </r>
       <r>   3.9565   2.0601  44.4221 </r>
       <r>   4.0218   2.2973  44.5723 </r>
       <r>   4.0872   1.1554  44.6478 </r>
       <r>   4.1526   0.2612  44.6649 </r>
       <r>   4.2180   0.0264  44.6666 </r>
       <r>   4.2833   0.0012  44.6667 </r>
       <r>   4.3487   0.0009  44.6667 </r>
       <r>   4.4141   0.0185  44.6679 </r>
       <r>   4.4795   0.1731  44.6793 </r>
       <r>   4.5449   0.7648  44.7293 </r>
       <r>   4.6102   1.7108  44.8411 </r>
       <r>   4.6756   2.1292  44.9803 </r>
       <r>   4.7410   1.7364  45.0938 </r>
       <r>   4.8064   1.4305  45.1874 </r>
       <r>   4.8717   1.2970  45.2721 </r>
       <r>   4.9371   0.7670  45.3223 </r>
       <r>   5.0025   0.4885  45.3542 </r>
       <r>   5.0679   0.9149  45.4140 </r>
       <r>   5.1333   1.2408  45.4952 </r>
       <r>   5.1986   1.0590  45.5644 </r>
       <r>   5.2640   1.5089  45.6630 </r>
       <r>   5.3294   2.4023  45.8201 </r>
       <r>   5.3948   2.0921  45.9569 </r>
       <r>   5.4601   1.5778  46.0600 </r>
       <r>   5.5255   2.2104  46.2045 </r>
       <r>   5.5909   2.2835  46.3538 </r>
       <r>   5.6563   1.1151  46.4267 </r>
       <r>   5.7217   0.2456  46.4428 </r>
       <r>   5.7870   0.0242  46.4444 </r>
       <r>   5.8524   0.0011  46.4444 </r>
       <r>   5.9178   0.0000  46.4444 </r>
       <r>   5.9832   0.0000  46.4444 </r>
       <r>   6.0485   0.0021  46.4446 </r>
       <r>   6.1139   0.0407  46.4472 </r>
       <r>   6.1793   0.3527  46.4703 </r>
       <r>   6.2447   1.3670  46.5597 </r>
       <r>   6.3101   2.3834  46.7155 </r>
       <r>   6.3754   1.8746  46.8381 </r>
       <r>   6.4408   0.6643  46.8815 </r>
       <r>   6.5062   0.1056  46.8884 </r>
       <r>   6.5716   0.0075  46.8889 </r>
       <r>   6.6369   0.0002  46.8889 </r>
       <r>   6.7023   0.0000  46.8889 </r>
       <r>   6.7677   0.0009  46.8889 </r>
       <r>   6.8331   0.0210  46.8903 </r>
       <r>   6.8985   0.2221  46.9048 </r>
       <r>   6.9638   1.0523  46.9736 </r>
       <r>   7.0292   2.2554  47.1211 </r>
       <r>   7.0946   2.3168  47.2726 </r>
       <r>   7.1600   1.6029  47.3773 </r>
       <r>   7.2253   1.3694  47.4669 </r>
       <r>   7.2907   0.9599  47.5296 </r>
       <r>   7.3561   0.3384  47.5518 </r>
       <r>   7.4215   0.0556  47.5554 </r>
       <r>   7.4869   0.0270  47.5572 </r>
       <r>   7.5522   0.1685  47.5682 </r>
       <r>   7.6176   0.5494  47.6041 </r>
       <r>   7.6830   0.8078  47.6569 </r>
       <r>   7.7484   0.5538  47.6931 </r>
       <r>   7.8137   0.3543  47.7163 </r>
       <r>   7.8791   0.9948  47.7813 </r>
       <r>   7.9445   2.4992  47.9447 </r>
       <r>   8.0099   3.3444  48.1633 </r>
       <r>   8.0753   2.3153  48.3147 </r>
       <r>   8.1406   1.0774  48.3852 </r>
       <r>   8.2060   1.4087  48.4773 </r>
       <r>   8.2714   2.3663  48.6320 </r>
       <r>   8.3368   1.9446  48.7591 </r>
       <r>   8.4021   0.7226  48.8063 </r>
       <r>   8.4675   0.1205  48.8142 </r>
       <r>   8.5329   0.0089  48.8148 </r>
       <r>   8.5983   0.0003  48.8148 </r>
       <r>   8.6637   0.0003  48.8148 </r>
       <r>   8.7290   0.0089  48.8154 </r>
       <r>   8.7944   0.1200  48.8233 </r>
       <r>   8.8598   0.7208  48.8704 </r>
       <r>   8.9252   1.9424  48.9974 </r>
       <r>   8.9905   2.3587  49.1516 </r>
       <r>   9.0559   1.2919  49.2360 </r>
       <r>   9.1213   0.3183  49.2569 </r>
       <r>   9.1867   0.0368  49.2593 </r>
       <r>   9.2521   0.0323  49.2614 </r>
       <r>   9.3174   0.2335  49.2766 </r>
       <r>   9.3828   0.8160  49.3300 </r>
       <r>   9.4482   1.4203  49.4228 </r>
       <r>   9.5136   1.5873  49.5266 </r>
       <r>   9.5789   1.4664  49.6225 </r>
       <r>   9.6443   0.9102  49.6820 </r>
       <r>   9.7097   0.2874  49.7008 </r>
       <r>   9.7751   0.0418  49.7035 </r>
       <r>   9.8405   0.0049  49.7038 </r>
       <r>   9.9058   0.0416  49.7066 </r>
       <r>   9.9712   0.3577  49.7300 </r>
       <r>  10.0366   1.3776  49.8200 </r>
       <r>  10.1020   2.3903  49.9763 </r>
       <r>  10.1674   1.9267  50.1023 </r>
       <r>  10.2327   1.0923  50.1737 </r>
       <r>  10.2981   1.4910  50.2711 </r>
       <r>  10.3635   2.0132  50.4028 </r>
       <r>  10.4289   1.3198  50.4890 </r>
       <r>  10.4942   0.3943  50.5148 </r>
       <r>  10.5596   0.0534  50.5183 </r>
       <r>  10.6250   0.0076  50.5188 </r>
       <r>  10.6904   0.0717  50.5235 </r>
       <r>  10.7558   0.5160  50.5572 </r>
       <r>  10.8211   1.6653  50.6661 </r>
       <r>  10.8865   2.4201  50.8243 </r>
       <r>  10.9519   1.5867  50.9281 </r>
       <r>  11.0173   0.4683  50.9587 </r>
       <r>  11.0826   0.0619  50.9627 </r>
       <r>  11.1480   0.0036  50.9630 </r>
       <r>  11.2134   0.0002  50.9630 </r>
       <r>  11.2788   0.0034  50.9632 </r>
       <r>  11.3442   0.0445  50.9661 </r>
       <r>  11.4095   0.2568  50.9829 </r>
       <r>  11.4749   0.6657  51.0264 </r>
       <r>  11.5403   0.7778  51.0773 </r>
       <r>  11.6057   0.4133  51.1043 </r>
       <r>  11.6710   0.1570  51.1146 </r>
       <r>  11.7364   0.4687  51.1452 </r>
       <r>  11.8018   1.5700  51.2478 </r>
       <r>  11.8672   2.4192  51.4060 </r>
       <r>  11.9326   1.6822  51.5160 </r>
       <r>  11.9979   0.5279  51.5505 </r>
       <r>  12.0633   0.0964  51.5568 </r>
       <r>  12.1287   0.2075  51.5704 </r>
       <r>  12.1941   0.8717  51.6274 </r>
       <r>  12.2594   1.8750  51.7499 </r>
       <r>  12.3248   2.1153  51.8882 </r>
       <r>  12.3902   1.2632  51.9708 </r>
       <r>  12.4556   0.3854  51.9960 </r>
       <r>  12.5210   0.0570  51.9997 </r>
       <r>  12.5863   0.0039  52.0000 </r>
       <r>  12.6517   0.0001  52.0000 </r>
       <r>  12.7171   0.0000  52.0000 </r>
       <r>  12.7825   0.0000  52.0000 </r>
       <r>  12.8478   0.0000  52.0000 </r>
       <r>  12.9132   0.0000  52.0000 </r>
       <r>  12.9786   0.0000  52.0000 </r>
       <r>  13.0440   0.0000  52.0000 </r>
       <r>  13.1094   0.0000  52.0000 </r>
       <r>  13.1747   0.0000  52.0000 </r>
       <r>  13.2401   0.0000  52.0000 </r>
       <r>  13.3055   0.0000  52.0000 </r>
      </set>
     </set>
    </array>
   </total>
   <partial>
    <array>
     <dimension dim="1">gridpoints</dimension>
     <dimension dim="2">spin</dimension>
     <dimension dim="3">ion</dimension>
     <field>energy</field>
     <field>  s</field>
     <field> py</field>
     <field> pz</field>
     <field> px</field>
     <field>dxy</field>
     <field>dyz</field>
     <field>dz2</field>
     <field>dxz</field>
     <field>dx2</field>
     <set>
      <set comment="ion 1">
       <set comment="spin 1">
        <r>  -6.3079   0.0000   0.0000   0.0000   0.0000   0.0000   0.0000   0.0000   0.0000   0.0000 </r>
        <r>  -6.2425   0.0000   0.0000   0.0000   0.0000   0.0000   0.0000   0.0000   0.0000   0.0000 </r>
        <r>  -6.1771   0.0000   0.0000   0.0000   0.0000   0.0000   0.0000   0.0000   0.0000   0.0000 </r>
        <r>  -6.1117   0.0000   0.0000   0.0000   0.0000   0.0000   0.0000   0.0000   0.0000   0.0000 </r>
        <r>  -6.0463   0.0000   0.0000   0.0000   0.0000   0.0000   0.0000   0.0000   0.0000   0.0000 </r>
        <r>  -5.9810   0.0000   0.0000   0.0000   0.0000   0.0000   0.0000   0.0000   0.0000   0.0000 </r>
        <r>  -5.9156   0.0000   0.0000   0.0000   0.0000   0.0000   0.0000   0.0000   0.0000   0.0000 </r>
        <r>  -5.8502   0.0000   0.0000   0.0000   0.0000   0.0000   0.0000   0.0000   0.0000   0.0000 </r>
        <r>  -5.7848   0.0000   0.0000   0.0000   0.0000   0.0000   0.0000   0.0000   0.0000   0.0000 </r>
        <r>  -5.7195   0.0000   0.0000   0.0000   0.0000   0.0000   0.0000   0.0000   0.0000   0.0000 </r>
        <r>  -5.6541   0.0000   0.0000   0.0000   0.0000   0.0000   0.0000   0.0000   0.0000   0.0000 </r>
        <r>  -5.5887   0.0000   0.0000   0.0000   0.0000   0.0000   0.0000   0.0000   0.0000   0.0000 </r>
        <r>  -5.5233   0.0002   0.0000   0.0000   0.0000   0.0000   0.0000   0.0000   0.0000   0.0000 </r>
        <r>  -5.4579   0.0026   0.0000   0.0000   0.0000   0.0000   0.0000   0.0000   0.0000   0.0000 </r>
        <r>  -5.3926   0.0162   0.0001   0.0001   0.0001   0.0000   0.0000   0.0000   0.0000   0.0000 </r>
        <r>  -5.3272   0.0456   0.0003   0.0003   0.0003   0.0000   0.0000   0.0000   0.0000   0.0000 </r>
        <r>  -5.2618   0.0577   0.0004   0.0004   0.0004   0.0000   0.0000   0.0000   0.0000   0.0000 </r>
        <r>  -5.1964   0.0330   0.0002   0.0002   0.0002   0.0000   0.0000   0.0000   0.0000   0.0000 </r>
        <r>  -5.1311   0.0085   0.0001   0.0001   0.0001   0.0000   0.0000   0.0000   0.0000   0.0000 </r>
        <r>  -5.0657   0.0010   0.0000   0.0000   0.0000   0.0000   0.0000   0.0000   0.0000   0.0000 </r>
        <r>  -5.0003   0.0000   0.0000   0.0000   0.0000   0.0000   0.0000   0.0000   0.0000   0.0000 </r>
        <r>  -4.9349   0.0000   0.0000   0.0000   0.0000   0.0000   0.0000   0.0000   0.0000   0.0000 </r>
        <r>  -4.8695   0.0006   0.0000   0.0000   0.0000   0.0000   0.0000   0.0000   0.0000   0.0000 </r>
        <r>  -4.8042   0.0077   0.0001   0.0001   0.0005   0.0000   0.0000   0.0000   0.0000   0.0000 </r>
        <r>  -4.7388   0.0473   0.0004   0.0004   0.0032   0.0001   0.0000   0.0000   0.0001   0.0001 </r>
        <r>  -4.6734   0.1304   0.0010   0.0010   0.0090   0.0003   0.0000   0.0001   0.0003   0.0004 </r>
        <r>  -4.6080   0.1620   0.0012   0.0012   0.0111   0.0003   0.0000   0.0002   0.0003   0.0005 </r>
        <r>  -4.5427   0.0907   0.0007   0.0007   0.0062   0.0002   0.0000   0.0001   0.0002   0.0003 </r>
        <r>  -4.4773   0.0229   0.0002   0.0002   0.0016   0.0000   0.0000   0.0000   0.0000   0.0001 </r>
        <r>  -4.4119   0.0026   0.0000   0.0000   0.0002   0.0000   0.0000   0.0000   0.0000   0.0000 </r>
        <r>  -4.3465   0.0001   0.0000   0.0000   0.0000   0.0000   0.0000   0.0000   0.0000   0.0000 </r>
        <r>  -4.2811   0.0001   0.0000   0.0000   0.0000   0.0000   0.0000   0.0000   0.0000   0.0000 </r>
        <r>  -4.2158   0.0019   0.0001   0.0000   0.0001   0.0000   0.0000   0.0000   0.0000   0.0000 </r>
        <r>  -4.1504   0.0182   0.0013   0.0001   0.0013   0.0004   0.0001   0.0001   0.0001   0.0000 </r>
        <r>  -4.0850   0.0775   0.0053   0.0006   0.0053   0.0016   0.0002   0.0003   0.0002   0.0000 </r>
        <r>  -4.0196   0.1484   0.0102   0.0011   0.0102   0.0031   0.0004   0.0006   0.0004   0.0000 </r>
        <r>  -3.9543   0.1282   0.0088   0.0009   0.0088   0.0027   0.0004   0.0005   0.0004   0.0000 </r>
        <r>  -3.8889   0.0499   0.0034   0.0004   0.0034   0.0010   0.0001   0.0002   0.0001   0.0000 </r>
        <r>  -3.8235   0.0087   0.0006   0.0001   0.0006   0.0002   0.0000   0.0000   0.0000   0.0000 </r>
        <r>  -3.7581   0.0007   0.0000   0.0000   0.0000   0.0000   0.0000   0.0000   0.0000   0.0000 </r>
        <r>  -3.6927   0.0001   0.0000   0.0000   0.0000   0.0000   0.0000   0.0000   0.0000   0.0000 </r>
        <r>  -3.6274   0.0021   0.0001   0.0001   0.0003   0.0000   0.0000   0.0000   0.0000   0.0000 </r>
        <r>  -3.5620   0.0204   0.0006   0.0006   0.0030   0.0004   0.0003   0.0002   0.0004   0.0005 </r>
        <r>  -3.4966   0.0886   0.0024   0.0024   0.0138   0.0014   0.0010   0.0008   0.0014   0.0025 </r>
        <r>  -3.4312   0.1768   0.0041   0.0041   0.0290   0.0025   0.0016   0.0018   0.0025   0.0055 </r>
        <r>  -3.3659   0.1619   0.0032   0.0032   0.0278   0.0021   0.0012   0.0018   0.0021   0.0054 </r>
        <r>  -3.3005   0.0678   0.0012   0.0012   0.0120   0.0008   0.0004   0.0008   0.0008   0.0024 </r>
        <r>  -3.2351   0.0129   0.0002   0.0002   0.0024   0.0001   0.0001   0.0002   0.0001   0.0005 </r>
        <r>  -3.1697   0.0011   0.0000   0.0000   0.0002   0.0000   0.0000   0.0000   0.0000   0.0000 </r>
        <r>  -3.1043   0.0005   0.0000   0.0000   0.0001   0.0000   0.0000   0.0000   0.0000   0.0000 </r>
        <r>  -3.0390   0.0081   0.0006   0.0001   0.0016   0.0007   0.0001   0.0002   0.0001   0.0002 </r>
        <r>  -2.9736   0.0572   0.0040   0.0004   0.0115   0.0048   0.0005   0.0014   0.0007   0.0014 </r>
        <r>  -2.9082   0.1817   0.0127   0.0011   0.0366   0.0153   0.0014   0.0043   0.0022   0.0043 </r>
        <r>  -2.8428   0.2598   0.0181   0.0016   0.0524   0.0219   0.0021   0.0061   0.0032   0.0062 </r>
        <r>  -2.7775   0.1675   0.0117   0.0011   0.0338   0.0141   0.0013   0.0040   0.0020   0.0040 </r>
        <r>  -2.7121   0.0487   0.0034   0.0003   0.0098   0.0041   0.0004   0.0011   0.0006   0.0012 </r>
        <r>  -2.6467   0.0068   0.0005   0.0001   0.0014   0.0006   0.0001   0.0002   0.0001   0.0002 </r>
        <r>  -2.5813   0.0064   0.0004   0.0003   0.0012   0.0009   0.0005   0.0001   0.0008   0.0001 </r>
        <r>  -2.5159   0.0355   0.0019   0.0019   0.0066   0.0048   0.0032   0.0003   0.0048   0.0008 </r>
        <r>  -2.4506   0.0938   0.0052   0.0052   0.0174   0.0128   0.0085   0.0007   0.0128   0.0021 </r>
        <r>  -2.3852   0.1119   0.0061   0.0061   0.0208   0.0153   0.0101   0.0008   0.0153   0.0025 </r>
        <r>  -2.3198   0.0602   0.0033   0.0033   0.0112   0.0082   0.0054   0.0005   0.0082   0.0014 </r>
        <r>  -2.2544   0.0146   0.0008   0.0008   0.0027   0.0020   0.0013   0.0001   0.0020   0.0003 </r>
        <r>  -2.1891   0.0018   0.0001   0.0001   0.0004   0.0002   0.0001   0.0001   0.0002   0.0002 </r>
        <r>  -2.1237   0.0042   0.0001   0.0000   0.0016   0.0003   0.0000   0.0006   0.0001   0.0017 </r>
        <r>  -2.0583   0.0302   0.0014   0.0002   0.0109   0.0028   0.0003   0.0042   0.0008   0.0114 </r>
        <r>  -1.9929   0.1051   0.0075   0.0007   0.0353   0.0145   0.0016   0.0132   0.0029   0.0334 </r>
        <r>  -1.9275   0.1812   0.0185   0.0011   0.0551   0.0355   0.0042   0.0199   0.0059   0.0442 </r>
        <r>  -1.8622   0.1658   0.0220   0.0010   0.0439   0.0451   0.0084   0.0148   0.0094   0.0263 </r>
        <r>  -1.7968   0.1121   0.0168   0.0013   0.0227   0.0454   0.0192   0.0064   0.0195   0.0071 </r>
        <r>  -1.7314   0.0972   0.0139   0.0019   0.0153   0.0506   0.0308   0.0031   0.0308   0.0016 </r>
        <r>  -1.6660   0.0850   0.0107   0.0016   0.0167   0.0424   0.0260   0.0051   0.0258   0.0074 </r>
        <r>  -1.6007   0.1084   0.0098   0.0012   0.0362   0.0406   0.0193   0.0166   0.0184   0.0325 </r>
        <r>  -1.5353   0.1775   0.0137   0.0016   0.0665   0.0608   0.0265   0.0322   0.0246   0.0648 </r>
        <r>  -1.4699   0.1662   0.0122   0.0017   0.0616   0.0596   0.0298   0.0295   0.0276   0.0601 </r>
        <r>  -1.4045   0.0981   0.0059   0.0017   0.0350   0.0412   0.0314   0.0150   0.0282   0.0334 </r>
        <r>  -1.3391   0.0870   0.0032   0.0024   0.0278   0.0518   0.0547   0.0104   0.0493   0.0287 </r>
        <r>  -1.2738   0.1019   0.0033   0.0027   0.0262   0.0849   0.0885   0.0184   0.0835   0.0517 </r>
        <r>  -1.2084   0.1129   0.0055   0.0022   0.0238   0.1154   0.1093   0.0502   0.1071   0.1213 </r>
        <r>  -1.1430   0.1367   0.0118   0.0017   0.0278   0.1490   0.1237   0.1097   0.1232   0.2059 </r>
        <r>  -1.0776   0.1405   0.0171   0.0014   0.0266   0.1653   0.1224   0.1514   0.1223   0.2142 </r>
        <r>  -1.0123   0.1182   0.0221   0.0012   0.0249   0.1565   0.0846   0.1273   0.0846   0.1480 </r>
        <r>  -0.9469   0.1453   0.0388   0.0018   0.0396   0.2186   0.0731   0.1159   0.0736   0.1334 </r>
        <r>  -0.8815   0.1869   0.0517   0.0034   0.0540   0.2772   0.0942   0.2400   0.0968   0.2700 </r>
        <r>  -0.8161   0.1559   0.0406   0.0047   0.0459   0.2078   0.0897   0.4209   0.0969   0.4102 </r>
        <r>  -0.7507   0.0944   0.0215   0.0063   0.0260   0.1526   0.0963   0.4114   0.1159   0.3389 </r>
        <r>  -0.6854   0.0679   0.0134   0.0099   0.0113   0.2484   0.1597   0.2664   0.2183   0.1638 </r>
        <r>  -0.6200   0.0708   0.0151   0.0134   0.0066   0.4042   0.2223   0.2301   0.3183   0.0610 </r>
        <r>  -0.5546   0.0685   0.0198   0.0128   0.0130   0.4974   0.2751   0.2781   0.3328   0.0516 </r>
        <r>  -0.4892   0.0598   0.0290   0.0112   0.0296   0.5633   0.3429   0.3936   0.3732   0.1393 </r>
        <r>  -0.4239   0.0559   0.0404   0.0117   0.0432   0.5846   0.3401   0.5520   0.4277   0.2549 </r>
        <r>  -0.3585   0.0501   0.0428   0.0141   0.0386   0.6222   0.3396   0.5182   0.4270   0.2353 </r>
        <r>  -0.2931   0.0368   0.0338   0.0149   0.0246   0.6380   0.3857   0.3738   0.3558   0.1219 </r>
        <r>  -0.2277   0.0205   0.0300   0.0153   0.0237   0.4980   0.4480   0.3886   0.2744   0.0824 </r>
        <r>  -0.1623   0.0098   0.0365   0.0255   0.0336   0.4180   0.5689   0.5103   0.3886   0.1193 </r>
        <r>  -0.0970   0.0060   0.0325   0.0384   0.0319   0.3786   0.6595   0.4679   0.5661   0.1381 </r>
        <r>  -0.0316   0.0037   0.0179   0.0347   0.0234   0.2189   0.5367   0.3705   0.4808   0.1324 </r>
        <r>   0.0338   0.0027   0.0140   0.0251   0.0253   0.0837   0.4040   0.4693   0.2732   0.1576 </r>
        <r>   0.0992   0.0058   0.0231   0.0321   0.0325   0.0590   0.7172   0.6052   0.2887   0.1840 </r>
        <r>   0.1645   0.0115   0.0312   0.0444   0.0297   0.1210   1.1436   0.5128   0.4557   0.1516 </r>
        <r>   0.2299   0.0165   0.0332   0.0400   0.0191   0.3111   0.9888   0.4068   0.5011   0.0946 </r>
        <r>   0.2953   0.0196   0.0363   0.0346   0.0152   0.5618   0.6469   0.5673   0.5028   0.0962 </r>
        <r>   0.3607   0.0184   0.0404   0.0517   0.0196   0.6908   0.7023   0.7328   0.6955   0.1686 </r>
        <r>   0.4261   0.0142   0.0414   0.0731   0.0198   0.6930   0.7728   0.6229   0.9341   0.2263 </r>
        <r>   0.4914   0.0131   0.0349   0.0652   0.0173   0.6698   0.5626   0.4632   0.8681   0.2685 </r>
        <r>   0.5568   0.0201   0.0314   0.0438   0.0234   0.8060   0.3946   0.5424   0.6706   0.3652 </r>
        <r>   0.6222   0.0306   0.0391   0.0408   0.0360   0.9987   0.4623   0.7110   0.6500   0.4603 </r>
        <r>   0.6876   0.0392   0.0510   0.0500   0.0483   1.1096   0.6276   0.7420   0.7325   0.5685 </r>
        <r>   0.7529   0.0416   0.0554   0.0500   0.0530   1.3285   0.6736   0.6810   0.8342   0.6606 </r>
        <r>   0.8183   0.0364   0.0469   0.0437   0.0475   1.4222   0.6440   0.5979   0.9705   0.7080 </r>
        <r>   0.8837   0.0288   0.0297   0.0385   0.0365   1.0068   0.6120   0.4866   0.9841   0.8291 </r>
        <r>   0.9491   0.0199   0.0131   0.0241   0.0224   0.4916   0.4425   0.3577   0.8031   0.8523 </r>
        <r>   1.0145   0.0097   0.0067   0.0110   0.0098   0.3211   0.2803   0.2836   0.7062   0.7693 </r>
        <r>   1.0798   0.0041   0.0123   0.0122   0.0041   0.3469   0.2723   0.2691   0.6613   0.8357 </r>
        <r>   1.1452   0.0044   0.0230   0.0207   0.0043   0.3671   0.2969   0.2706   0.5706   1.0408 </r>
        <r>   1.2106   0.0062   0.0235   0.0205   0.0063   0.3279   0.2492   0.3017   0.5346   1.2004 </r>
        <r>   1.2760   0.0087   0.0175   0.0144   0.0116   0.2940   0.2348   0.4188   0.6258   1.5517 </r>
        <r>   1.3413   0.0122   0.0204   0.0154   0.0218   0.3205   0.3169   0.5558   0.7461   2.0212 </r>
        <r>   1.4067   0.0157   0.0229   0.0166   0.0308   0.3348   0.3254   0.6497   0.6686   1.9623 </r>
        <r>   1.4721   0.0172   0.0147   0.0102   0.0302   0.2746   0.2282   0.7205   0.4522   1.5007 </r>
        <r>   1.5375   0.0124   0.0071   0.0042   0.0201   0.1855   0.2528   0.8163   0.3755   1.1187 </r>
        <r>   1.6029   0.0081   0.0062   0.0038   0.0124   0.1549   0.4224   0.9163   0.5433   0.9298 </r>
        <r>   1.6682   0.0135   0.0094   0.0084   0.0167   0.2098   0.5172   0.9439   0.8035   0.9989 </r>
        <r>   1.7336   0.0254   0.0158   0.0160   0.0286   0.3252   0.4761   0.8883   0.8937   1.0837 </r>
        <r>   1.7990   0.0288   0.0182   0.0183   0.0313   0.4545   0.6117   0.8264   0.7729   0.8643 </r>
        <r>   1.8644   0.0213   0.0137   0.0132   0.0211   0.5907   1.2541   0.9384   0.7977   0.7445 </r>
        <r>   1.9297   0.0128   0.0080   0.0074   0.0106   0.6670   1.8517   1.0470   0.9879   0.8480 </r>
        <r>   1.9951   0.0058   0.0036   0.0035   0.0041   0.6066   1.8526   0.8641   0.9541   0.7462 </r>
        <r>   2.0605   0.0018   0.0014   0.0014   0.0012   0.4516   1.7031   0.4962   0.6353   0.4285 </r>
        <r>   2.1259   0.0021   0.0014   0.0009   0.0011   0.2839   1.3325   0.2038   0.3098   0.1644 </r>
        <r>   2.1913   0.0065   0.0037   0.0017   0.0035   0.1895   0.6107   0.1118   0.1122   0.0424 </r>
        <r>   2.2566   0.0117   0.0062   0.0025   0.0063   0.1735   0.1375   0.1264   0.0264   0.0071 </r>
        <r>   2.3220   0.0153   0.0064   0.0020   0.0078   0.1714   0.0153   0.1318   0.0046   0.0019 </r>
        <r>   2.3874   0.0295   0.0080   0.0013   0.0156   0.2569   0.0018   0.1827   0.0035   0.0066 </r>
        <r>   2.4528   0.0506   0.0110   0.0013   0.0292   0.3983   0.0018   0.2640   0.0073   0.0159 </r>
        <r>   2.5181   0.0479   0.0094   0.0015   0.0300   0.3531   0.0022   0.2216   0.0118   0.0206 </r>
        <r>   2.5835   0.0296   0.0058   0.0026   0.0210   0.1743   0.0032   0.0987   0.0275   0.0283 </r>
        <r>   2.6489   0.0259   0.0057   0.0050   0.0213   0.0872   0.0058   0.0342   0.0573   0.0494 </r>
        <r>   2.7143   0.0235   0.0053   0.0052   0.0200   0.0630   0.0060   0.0186   0.0602   0.0508 </r>
        <r>   2.7797   0.0116   0.0025   0.0025   0.0103   0.0295   0.0029   0.0084   0.0293   0.0249 </r>
        <r>   2.8450   0.0075   0.0006   0.0006   0.0098   0.0110   0.0006   0.0037   0.0110   0.0110 </r>
        <r>   2.9104   0.0212   0.0005   0.0005   0.0321   0.0204   0.0001   0.0081   0.0204   0.0244 </r>
        <r>   2.9758   0.0387   0.0008   0.0008   0.0590   0.0365   0.0001   0.0147   0.0365   0.0442 </r>
        <r>   3.0412   0.0322   0.0007   0.0007   0.0492   0.0304   0.0001   0.0123   0.0304   0.0368 </r>
        <r>   3.1065   0.0121   0.0003   0.0003   0.0185   0.0115   0.0000   0.0046   0.0114   0.0138 </r>
        <r>   3.1719   0.0024   0.0003   0.0001   0.0034   0.0032   0.0001   0.0015   0.0020   0.0024 </r>
        <r>   3.2373   0.0054   0.0038   0.0016   0.0040   0.0180   0.0007   0.0098   0.0009   0.0018 </r>
        <r>   3.3027   0.0339   0.0258   0.0121   0.0258   0.1148   0.0055   0.0632   0.0055   0.0117 </r>
        <r>   3.3681   0.0982   0.0799   0.0403   0.0799   0.3325   0.0184   0.1846   0.0184   0.0373 </r>
        <r>   3.4334   0.1290   0.1125   0.0609   0.1125   0.4361   0.0278   0.2447   0.0278   0.0539 </r>
        <r>   3.4988   0.0769   0.0723   0.0418   0.0723   0.2595   0.0191   0.1474   0.0191   0.0355 </r>
        <r>   3.5642   0.0207   0.0211   0.0130   0.0211   0.0699   0.0059   0.0403   0.0059   0.0106 </r>
        <r>   3.6296   0.0025   0.0028   0.0018   0.0028   0.0085   0.0008   0.0050   0.0008   0.0014 </r>
        <r>   3.6949   0.0002   0.0002   0.0001   0.0002   0.0005   0.0001   0.0003   0.0001   0.0001 </r>
        <r>   3.7603   0.0004   0.0003   0.0000   0.0003   0.0008   0.0000   0.0003   0.0000   0.0002 </r>
        <r>   3.8257   0.0052   0.0038   0.0001   0.0038   0.0099   0.0005   0.0030   0.0005   0.0031 </r>
        <r>   3.8911   0.0287   0.0209   0.0006   0.0209   0.0543   0.0027   0.0168   0.0027   0.0168 </r>
        <r>   3.9565   0.0709   0.0517   0.0016   0.0517   0.1343   0.0068   0.0416   0.0068   0.0417 </r>
        <r>   4.0218   0.0791   0.0576   0.0017   0.0576   0.1498   0.0075   0.0464   0.0075   0.0465 </r>
        <r>   4.0872   0.0398   0.0290   0.0009   0.0290   0.0753   0.0038   0.0233   0.0038   0.0234 </r>
        <r>   4.1526   0.0090   0.0066   0.0002   0.0066   0.0170   0.0009   0.0053   0.0009   0.0053 </r>
        <r>   4.2180   0.0009   0.0007   0.0000   0.0007   0.0017   0.0001   0.0005   0.0001   0.0005 </r>
        <r>   4.2833   0.0000   0.0000   0.0000   0.0000   0.0001   0.0000   0.0000   0.0000   0.0000 </r>
        <r>   4.3487   0.0000   0.0000   0.0000   0.0000   0.0000   0.0000   0.0000   0.0000   0.0000 </r>
        <r>   4.4141   0.0006   0.0004   0.0004   0.0004   0.0004   0.0004   0.0003   0.0004   0.0003 </r>
        <r>   4.4795   0.0050   0.0036   0.0035   0.0036   0.0039   0.0035   0.0034   0.0035   0.0030 </r>
        <r>   4.5449   0.0209   0.0166   0.0157   0.0166   0.0187   0.0140   0.0162   0.0140   0.0120 </r>
        <r>   4.6102   0.0412   0.0400   0.0356   0.0400   0.0483   0.0255   0.0416   0.0255   0.0217 </r>
        <r>   4.6756   0.0422   0.0548   0.0445   0.0548   0.0726   0.0214   0.0614   0.0214   0.0177 </r>
        <r>   4.7410   0.0335   0.0472   0.0317   0.0472   0.0765   0.0085   0.0576   0.0085   0.0065 </r>
        <r>   4.8064   0.0418   0.0365   0.0134   0.0365   0.0865   0.0017   0.0499   0.0017   0.0011 </r>
        <r>   4.8717   0.0478   0.0309   0.0047   0.0309   0.0899   0.0002   0.0449   0.0002   0.0001 </r>
        <r>   4.9371   0.0286   0.0186   0.0034   0.0186   0.0518   0.0003   0.0252   0.0003   0.0003 </r>
        <r>   5.0025   0.0117   0.0160   0.0119   0.0160   0.0156   0.0019   0.0084   0.0019   0.0017 </r>
        <r>   5.0679   0.0135   0.0351   0.0346   0.0351   0.0074   0.0057   0.0060   0.0057   0.0052 </r>
        <r>   5.1333   0.0184   0.0483   0.0467   0.0471   0.0099   0.0078   0.0078   0.0077   0.0074 </r>
        <r>   5.1986   0.0226   0.0433   0.0290   0.0322   0.0240   0.0052   0.0113   0.0047   0.0076 </r>
        <r>   5.2640   0.0520   0.0673   0.0098   0.0228   0.0790   0.0034   0.0292   0.0014   0.0144 </r>
        <r>   5.3294   0.0894   0.1090   0.0050   0.0284   0.1410   0.0041   0.0512   0.0006   0.0241 </r>
        <r>   5.3948   0.0745   0.0931   0.0081   0.0257   0.1177   0.0041   0.0456   0.0032   0.0210 </r>
        <r>   5.4601   0.0370   0.0601   0.0289   0.0268   0.0583   0.0066   0.0377   0.0162   0.0155 </r>
        <r>   5.5255   0.0294   0.0723   0.0672   0.0464   0.0458   0.0133   0.0567   0.0388   0.0213 </r>
        <r>   5.5909   0.0275   0.0732   0.0728   0.0490   0.0427   0.0143   0.0590   0.0422   0.0219 </r>
        <r>   5.6563   0.0133   0.0357   0.0357   0.0240   0.0207   0.0070   0.0288   0.0207   0.0107 </r>
        <r>   5.7217   0.0029   0.0079   0.0079   0.0053   0.0046   0.0015   0.0064   0.0046   0.0024 </r>
        <r>   5.7870   0.0003   0.0008   0.0008   0.0005   0.0004   0.0002   0.0006   0.0004   0.0002 </r>
        <r>   5.8524   0.0000   0.0000   0.0000   0.0000   0.0000   0.0000   0.0000   0.0000   0.0000 </r>
        <r>   5.9178   0.0000   0.0000   0.0000   0.0000   0.0000   0.0000   0.0000   0.0000   0.0000 </r>
        <r>   5.9832   0.0000   0.0000   0.0000   0.0000   0.0000   0.0000   0.0000   0.0000   0.0000 </r>
        <r>   6.0485   0.0000   0.0001   0.0001   0.0000   0.0000   0.0000   0.0000   0.0000   0.0000 </r>
        <r>   6.1139   0.0006   0.0021   0.0021   0.0001   0.0007   0.0002   0.0003   0.0007   0.0002 </r>
        <r>   6.1793   0.0055   0.0178   0.0178   0.0006   0.0064   0.0015   0.0028   0.0064   0.0014 </r>
        <r>   6.2447   0.0214   0.0691   0.0691   0.0023   0.0250   0.0060   0.0108   0.0250   0.0053 </r>
        <r>   6.3101   0.0374   0.1205   0.1205   0.0039   0.0435   0.0104   0.0189   0.0435   0.0093 </r>
        <r>   6.3754   0.0294   0.0948   0.0948   0.0031   0.0342   0.0082   0.0148   0.0342   0.0073 </r>
        <r>   6.4408   0.0104   0.0336   0.0336   0.0011   0.0121   0.0029   0.0053   0.0121   0.0026 </r>
        <r>   6.5062   0.0017   0.0053   0.0053   0.0002   0.0019   0.0005   0.0008   0.0019   0.0004 </r>
        <r>   6.5716   0.0001   0.0004   0.0004   0.0000   0.0001   0.0000   0.0001   0.0001   0.0000 </r>
        <r>   6.6369   0.0000   0.0000   0.0000   0.0000   0.0000   0.0000   0.0000   0.0000   0.0000 </r>
        <r>   6.7023   0.0000   0.0000   0.0000   0.0000   0.0000   0.0000   0.0000   0.0000   0.0000 </r>
        <r>   6.7677   0.0000   0.0000   0.0000   0.0000   0.0000   0.0000   0.0000   0.0000   0.0000 </r>
        <r>   6.8331   0.0006   0.0009   0.0002   0.0005   0.0009   0.0000   0.0005   0.0000   0.0001 </r>
        <r>   6.8985   0.0062   0.0098   0.0016   0.0058   0.0097   0.0000   0.0050   0.0002   0.0006 </r>
        <r>   6.9638   0.0292   0.0466   0.0077   0.0274   0.0458   0.0000   0.0236   0.0010   0.0027 </r>
        <r>   7.0292   0.0624   0.0991   0.0179   0.0584   0.0974   0.0004   0.0505   0.0024   0.0057 </r>
        <r>   7.0946   0.0617   0.0957   0.0312   0.0567   0.0935   0.0039   0.0508   0.0058   0.0055 </r>
        <r>   7.1600   0.0341   0.0440   0.0685   0.0272   0.0407   0.0152   0.0309   0.0160   0.0024 </r>
        <r>   7.2253   0.0197   0.0132   0.1100   0.0100   0.0083   0.0267   0.0217   0.0269   0.0005 </r>
        <r>   7.2907   0.0121   0.0049   0.0864   0.0046   0.0011   0.0212   0.0144   0.0212   0.0000 </r>
        <r>   7.3561   0.0042   0.0015   0.0309   0.0015   0.0002   0.0076   0.0050   0.0076   0.0000 </r>
        <r>   7.4215   0.0009   0.0002   0.0050   0.0002   0.0000   0.0012   0.0008   0.0013   0.0000 </r>
        <r>   7.4869   0.0033   0.0001   0.0004   0.0001   0.0004   0.0006   0.0001   0.0010   0.0000 </r>
        <r>   7.5522   0.0236   0.0009   0.0006   0.0005   0.0029   0.0034   0.0000   0.0066   0.0000 </r>
        <r>   7.6176   0.0769   0.0028   0.0020   0.0017   0.0094   0.0110   0.0000   0.0216   0.0001 </r>
        <r>   7.6830   0.1130   0.0041   0.0029   0.0025   0.0138   0.0162   0.0000   0.0317   0.0001 </r>
        <r>   7.7484   0.0764   0.0028   0.0024   0.0017   0.0096   0.0112   0.0001   0.0216   0.0001 </r>
        <r>   7.8137   0.0375   0.0025   0.0057   0.0008   0.0067   0.0078   0.0007   0.0116   0.0002 </r>
        <r>   7.8791   0.0679   0.0152   0.0290   0.0027   0.0205   0.0197   0.0047   0.0266   0.0013 </r>
        <r>   7.9445   0.1312   0.0596   0.0849   0.0098   0.0524   0.0367   0.0158   0.0626   0.0053 </r>
        <r>   8.0099   0.1302   0.1064   0.1274   0.0171   0.0708   0.0327   0.0260   0.0793   0.0095 </r>
        <r>   8.0753   0.0690   0.0864   0.0943   0.0139   0.0495   0.0146   0.0202   0.0527   0.0077 </r>
        <r>   8.1406   0.0443   0.0355   0.0368   0.0076   0.0245   0.0079   0.0078   0.0251   0.0030 </r>
        <r>   8.2060   0.1114   0.0219   0.0220   0.0117   0.0362   0.0202   0.0034   0.0362   0.0013 </r>
        <r>   8.2714   0.1994   0.0310   0.0310   0.0200   0.0616   0.0363   0.0042   0.0616   0.0015 </r>
        <r>   8.3368   0.1643   0.0253   0.0253   0.0164   0.0507   0.0300   0.0034   0.0507   0.0012 </r>
        <r>   8.4021   0.0611   0.0094   0.0094   0.0061   0.0188   0.0111   0.0013   0.0188   0.0004 </r>
        <r>   8.4675   0.0102   0.0016   0.0016   0.0010   0.0031   0.0019   0.0002   0.0031   0.0001 </r>
        <r>   8.5329   0.0008   0.0001   0.0001   0.0001   0.0002   0.0001   0.0000   0.0002   0.0000 </r>
        <r>   8.5983   0.0000   0.0000   0.0000   0.0000   0.0000   0.0000   0.0000   0.0000   0.0000 </r>
        <r>   8.6637   0.0000   0.0000   0.0000   0.0000   0.0000   0.0000   0.0000   0.0000   0.0000 </r>
        <r>   8.7290   0.0004   0.0000   0.0007   0.0000   0.0000   0.0001   0.0000   0.0003   0.0000 </r>
        <r>   8.7944   0.0051   0.0000   0.0090   0.0001   0.0006   0.0018   0.0006   0.0041   0.0000 </r>
        <r>   8.8598   0.0309   0.0001   0.0538   0.0008   0.0039   0.0110   0.0035   0.0248   0.0000 </r>
        <r>   8.9252   0.0831   0.0002   0.1449   0.0021   0.0104   0.0297   0.0095   0.0668   0.0000 </r>
        <r>   8.9905   0.1010   0.0002   0.1760   0.0026   0.0127   0.0361   0.0116   0.0812   0.0000 </r>
        <r>   9.0559   0.0553   0.0001   0.0964   0.0014   0.0069   0.0198   0.0063   0.0445   0.0000 </r>
        <r>   9.1213   0.0136   0.0000   0.0238   0.0004   0.0017   0.0049   0.0016   0.0110   0.0000 </r>
        <r>   9.1867   0.0017   0.0000   0.0027   0.0000   0.0002   0.0005   0.0002   0.0012   0.0000 </r>
        <r>   9.2521   0.0037   0.0000   0.0017   0.0002   0.0007   0.0002   0.0001   0.0004   0.0000 </r>
        <r>   9.3174   0.0273   0.0002   0.0121   0.0015   0.0056   0.0010   0.0009   0.0025   0.0000 </r>
        <r>   9.3828   0.0938   0.0016   0.0412   0.0057   0.0199   0.0035   0.0034   0.0084   0.0001 </r>
        <r>   9.4482   0.1509   0.0087   0.0633   0.0151   0.0367   0.0058   0.0069   0.0133   0.0001 </r>
        <r>   9.5136   0.1302   0.0285   0.0446   0.0329   0.0477   0.0054   0.0109   0.0106   0.0001 </r>
        <r>   9.5789   0.0820   0.0450   0.0152   0.0464   0.0506   0.0039   0.0132   0.0055   0.0000 </r>
        <r>   9.6443   0.0416   0.0325   0.0031   0.0327   0.0330   0.0022   0.0089   0.0024   0.0000 </r>
        <r>   9.7097   0.0124   0.0106   0.0005   0.0106   0.0106   0.0007   0.0029   0.0007   0.0000 </r>
        <r>   9.7751   0.0018   0.0016   0.0001   0.0016   0.0015   0.0001   0.0004   0.0001   0.0000 </r>
        <r>   9.8405   0.0002   0.0002   0.0001   0.0001   0.0001   0.0000   0.0000   0.0001   0.0000 </r>
        <r>   9.9058   0.0012   0.0016   0.0016   0.0006   0.0009   0.0001   0.0003   0.0009   0.0001 </r>
        <r>   9.9712   0.0104   0.0134   0.0134   0.0047   0.0074   0.0006   0.0026   0.0074   0.0009 </r>
        <r>  10.0366   0.0400   0.0516   0.0516   0.0183   0.0287   0.0022   0.0100   0.0287   0.0036 </r>
        <r>  10.1020   0.0695   0.0894   0.0896   0.0317   0.0497   0.0040   0.0174   0.0498   0.0062 </r>
        <r>  10.1674   0.0568   0.0705   0.0735   0.0250   0.0392   0.0044   0.0139   0.0404   0.0049 </r>
        <r>  10.2327   0.0373   0.0292   0.0499   0.0108   0.0165   0.0106   0.0071   0.0245   0.0021 </r>
        <r>  10.2981   0.0619   0.0198   0.0824   0.0084   0.0115   0.0300   0.0077   0.0364   0.0018 </r>
        <r>  10.3635   0.0866   0.0253   0.1105   0.0106   0.0143   0.0422   0.0097   0.0496   0.0025 </r>
        <r>  10.4289   0.0577   0.0178   0.0703   0.0072   0.0097   0.0271   0.0060   0.0324   0.0018 </r>
        <r>  10.4942   0.0175   0.0057   0.0203   0.0022   0.0030   0.0079   0.0017   0.0096   0.0006 </r>
        <r>  10.5596   0.0024   0.0008   0.0027   0.0003   0.0004   0.0010   0.0002   0.0013   0.0001 </r>
        <r>  10.6250   0.0003   0.0001   0.0005   0.0001   0.0000   0.0001   0.0000   0.0002   0.0000 </r>
        <r>  10.6904   0.0025   0.0001   0.0049   0.0009   0.0002   0.0007   0.0005   0.0026   0.0000 </r>
        <r>  10.7558   0.0182   0.0004   0.0353   0.0063   0.0016   0.0049   0.0035   0.0186   0.0003 </r>
        <r>  10.8211   0.0587   0.0012   0.1139   0.0202   0.0052   0.0158   0.0112   0.0599   0.0008 </r>
        <r>  10.8865   0.0852   0.0018   0.1656   0.0294   0.0075   0.0230   0.0162   0.0870   0.0012 </r>
        <r>  10.9519   0.0559   0.0012   0.1085   0.0193   0.0049   0.0151   0.0107   0.0571   0.0008 </r>
        <r>  11.0173   0.0165   0.0003   0.0320   0.0057   0.0015   0.0045   0.0031   0.0168   0.0002 </r>
        <r>  11.0826   0.0022   0.0000   0.0042   0.0008   0.0002   0.0006   0.0004   0.0022   0.0000 </r>
        <r>  11.1480   0.0001   0.0000   0.0002   0.0000   0.0000   0.0000   0.0000   0.0001   0.0000 </r>
        <r>  11.2134   0.0000   0.0000   0.0000   0.0000   0.0000   0.0000   0.0000   0.0000   0.0000 </r>
        <r>  11.2788   0.0003   0.0000   0.0000   0.0000   0.0000   0.0000   0.0001   0.0000   0.0002 </r>
        <r>  11.3442   0.0041   0.0004   0.0002   0.0003   0.0000   0.0000   0.0012   0.0000   0.0021 </r>
        <r>  11.4095   0.0236   0.0023   0.0014   0.0016   0.0000   0.0000   0.0068   0.0000   0.0120 </r>
        <r>  11.4749   0.0611   0.0060   0.0035   0.0042   0.0001   0.0001   0.0176   0.0001   0.0312 </r>
[...]
        <r>  0.0000  0.0031  0.0002  0.0031  0.0206  0.0076  0.1867  0.0076  0.0000 </r>
       </set>
       <set comment="band 6">
        <r>  0.0002  0.0009  0.0016  0.0037  0.0395  0.0037  0.1391  0.0032  0.0515 </r>
        <r>  0.0002  0.0009  0.0016  0.0037  0.0395  0.0037  0.1391  0.0032  0.0515 </r>
        <r>  0.0001  0.0015  0.0012  0.0043  0.0300  0.0028  0.1059  0.0024  0.0676 </r>
        <r>  0.0001  0.0015  0.0012  0.0043  0.0300  0.0028  0.1059  0.0024  0.0676 </r>
       </set>
       <set comment="band 7">
        <r>  0.0001  0.0043  0.0012  0.0015  0.0300  0.0024  0.1059  0.0028  0.0676 </r>
        <r>  0.0001  0.0043  0.0012  0.0015  0.0300  0.0024  0.1059  0.0028  0.0676 </r>
        <r>  0.0002  0.0037  0.0016  0.0009  0.0394  0.0032  0.1391  0.0037  0.0515 </r>
        <r>  0.0002  0.0037  0.0016  0.0009  0.0394  0.0032  0.1391  0.0037  0.0515 </r>
       </set>
       <set comment="band 8">
        <r>  0.0003  0.0000  0.0007  0.0000  0.0782  0.0251  0.1100  0.0251  0.0000 </r>
        <r>  0.0003  0.0000  0.0007  0.0000  0.0782  0.0251  0.1100  0.0251  0.0000 </r>
        <r>  0.0003  0.0000  0.0007  0.0000  0.0782  0.0251  0.1100  0.0251  0.0000 </r>
        <r>  0.0003  0.0000  0.0007  0.0000  0.0782  0.0251  0.1100  0.0251  0.0000 </r>
       </set>
       <set comment="band 9">
        <r>  0.0098  0.0118  0.0114  0.0118  0.0054  0.0593  0.0370  0.0593  0.0000 </r>
        <r>  0.0098  0.0118  0.0114  0.0118  0.0054  0.0593  0.0370  0.0593  0.0000 </r>
        <r>  0.0098  0.0118  0.0114  0.0118  0.0054  0.0593  0.0370  0.0593  0.0000 </r>
        <r>  0.0098  0.0118  0.0114  0.0118  0.0054  0.0593  0.0370  0.0593  0.0000 </r>
       </set>
       <set comment="band 10">
        <r>  0.0045  0.0056  0.0106  0.0071  0.0565  0.1030  0.0001  0.0110  0.0144 </r>
        <r>  0.0045  0.0056  0.0106  0.0071  0.0565  0.1030  0.0001  0.0110  0.0144 </r>
        <r>  0.0035  0.0074  0.0082  0.0090  0.0434  0.1139  0.0001  0.0219  0.0187 </r>
        <r>  0.0035  0.0074  0.0082  0.0090  0.0434  0.1139  0.0001  0.0219  0.0187 </r>
       </set>
       <set comment="band 11">
        <r>  0.0035  0.0090  0.0082  0.0074  0.0434  0.0219  0.0001  0.1139  0.0187 </r>
        <r>  0.0035  0.0090  0.0082  0.0074  0.0434  0.0219  0.0001  0.1139  0.0187 </r>
        <r>  0.0045  0.0071  0.0106  0.0056  0.0565  0.0110  0.0001  0.1030  0.0144 </r>
        <r>  0.0045  0.0071  0.0106  0.0056  0.0565  0.0110  0.0001  0.1030  0.0144 </r>
       </set>
       <set comment="band 12">
        <r>  0.0000  0.0000  0.0000  0.0000  0.0000  0.0512  0.0000  0.0512  0.1385 </r>
        <r>  0.0000  0.0000  0.0000  0.0000  0.0000  0.0512  0.0000  0.0512  0.1385 </r>
        <r>  0.0000  0.0000  0.0000  0.0000  0.0000  0.0512  0.0000  0.0512  0.1385 </r>
        <r>  0.0000  0.0000  0.0000  0.0000  0.0000  0.0512  0.0000  0.0512  0.1385 </r>
       </set>
       <set comment="band 13">
        <r>  0.0002  0.0084  0.0111  0.0084  0.0823  0.0460  0.0162  0.0460  0.0000 </r>
        <r>  0.0002  0.0084  0.0111  0.0084  0.0823  0.0460  0.0162  0.0460  0.0000 </r>
        <r>  0.0002  0.0084  0.0111  0.0084  0.0823  0.0460  0.0162  0.0460  0.0000 </r>
        <r>  0.0002  0.0084  0.0111  0.0084  0.0823  0.0460  0.0162  0.0460  0.0000 </r>
       </set>
       <set comment="band 14">
        <r>  0.0006  0.0011  0.0002  0.0022  0.0028  0.0395  0.0490  0.0584  0.0851 </r>
        <r>  0.0006  0.0011  0.0002  0.0022  0.0028  0.0395  0.0490  0.0584  0.0851 </r>
        <r>  0.0006  0.0011  0.0002  0.0023  0.0027  0.0386  0.0480  0.0576  0.0867 </r>
        <r>  0.0006  0.0011  0.0002  0.0023  0.0027  0.0386  0.0480  0.0576  0.0867 </r>
       </set>
       <set comment="band 15">
        <r>  0.0006  0.0023  0.0002  0.0011  0.0027  0.0576  0.0480  0.0386  0.0867 </r>
        <r>  0.0006  0.0023  0.0002  0.0011  0.0027  0.0576  0.0480  0.0386  0.0867 </r>
        <r>  0.0006  0.0022  0.0002  0.0011  0.0028  0.0584  0.0490  0.0395  0.0851 </r>
        <r>  0.0006  0.0022  0.0002  0.0011  0.0028  0.0584  0.0490  0.0395  0.0851 </r>
       </set>
       <set comment="band 16">
        <r>  0.0000  0.0003  0.0000  0.0003  0.0000  0.0401  0.0000  0.0401  0.1602 </r>
        <r>  0.0000  0.0003  0.0000  0.0003  0.0000  0.0401  0.0000  0.0401  0.1602 </r>
        <r>  0.0000  0.0003  0.0000  0.0003  0.0000  0.0401  0.0000  0.0401  0.1602 </r>
        <r>  0.0000  0.0003  0.0000  0.0003  0.0000  0.0401  0.0000  0.0401  0.1602 </r>
       </set>
       <set comment="band 17">
        <r>  0.0000  0.0001  0.0000  0.0001  0.0000  0.0710  0.0000  0.0710  0.1038 </r>
        <r>  0.0000  0.0001  0.0000  0.0001  0.0000  0.0710  0.0000  0.0710  0.1038 </r>
        <r>  0.0000  0.0001  0.0000  0.0001  0.0000  0.0710  0.0000  0.0710  0.1038 </r>
        <r>  0.0000  0.0001  0.0000  0.0001  0.0000  0.0710  0.0000  0.0710  0.1038 </r>
       </set>
       <set comment="band 18">
        <r>  0.0000  0.0004  0.0003  0.0000  0.0225  0.1212  0.0332  0.0296  0.0537 </r>
        <r>  0.0000  0.0004  0.0003  0.0000  0.0225  0.1212  0.0332  0.0296  0.0537 </r>
        <r>  0.0000  0.0005  0.0002  0.0001  0.0152  0.1030  0.0224  0.0114  0.0797 </r>
        <r>  0.0000  0.0005  0.0002  0.0001  0.0152  0.1030  0.0224  0.0114  0.0797 </r>
       </set>
       <set comment="band 19">
        <r>  0.0000  0.0001  0.0002  0.0005  0.0152  0.0114  0.0224  0.1030  0.0797 </r>
        <r>  0.0000  0.0001  0.0002  0.0005  0.0152  0.0114  0.0224  0.1030  0.0797 </r>
        <r>  0.0000  0.0000  0.0003  0.0004  0.0225  0.0296  0.0332  0.1212  0.0537 </r>
        <r>  0.0000  0.0000  0.0003  0.0004  0.0225  0.0296  0.0332  0.1212  0.0537 </r>
       </set>
       <set comment="band 20">
        <r>  0.0000  0.0000  0.0000  0.0000  0.0000  0.0827  0.0000  0.0827  0.0818 </r>
        <r>  0.0000  0.0000  0.0000  0.0000  0.0000  0.0827  0.0000  0.0827  0.0818 </r>
        <r>  0.0000  0.0000  0.0000  0.0000  0.0000  0.0827  0.0000  0.0827  0.0818 </r>
        <r>  0.0000  0.0000  0.0000  0.0000  0.0000  0.0827  0.0000  0.0827  0.0818 </r>
       </set>
       <set comment="band 21">
        <r>  0.0089  0.0049  0.0021  0.0049  0.1171  0.0013  0.0945  0.0013  0.0000 </r>
        <r>  0.0089  0.0049  0.0021  0.0049  0.1171  0.0013  0.0945  0.0013  0.0000 </r>
        <r>  0.0089  0.0049  0.0021  0.0049  0.1171  0.0013  0.0945  0.0013  0.0000 </r>
        <r>  0.0089  0.0049  0.0021  0.0049  0.1171  0.0013  0.0945  0.0013  0.0000 </r>
       </set>
       <set comment="band 22">
        <r>  0.0236  0.0222  0.0101  0.0128  0.0794  0.0066  0.0434  0.0024  0.0091 </r>
        <r>  0.0236  0.0222  0.0101  0.0128  0.0794  0.0066  0.0434  0.0024  0.0091 </r>
        <r>  0.0204  0.0248  0.0087  0.0154  0.0687  0.0060  0.0375  0.0019  0.0106 </r>
        <r>  0.0204  0.0248  0.0087  0.0154  0.0687  0.0060  0.0375  0.0019  0.0106 </r>
       </set>
       <set comment="band 23">
        <r>  0.0204  0.0154  0.0087  0.0248  0.0687  0.0019  0.0375  0.0060  0.0106 </r>
        <r>  0.0204  0.0154  0.0087  0.0248  0.0687  0.0019  0.0375  0.0060  0.0106 </r>
        <r>  0.0236  0.0128  0.0101  0.0222  0.0794  0.0024  0.0434  0.0066  0.0091 </r>
        <r>  0.0236  0.0128  0.0101  0.0222  0.0794  0.0024  0.0434  0.0066  0.0091 </r>
       </set>
       <set comment="band 24">
        <r>  0.0099  0.0306  0.0223  0.0306  0.0437  0.0009  0.0377  0.0009  0.0000 </r>
        <r>  0.0099  0.0306  0.0223  0.0306  0.0437  0.0009  0.0377  0.0009  0.0000 </r>
        <r>  0.0099  0.0306  0.0223  0.0306  0.0437  0.0009  0.0377  0.0009  0.0000 </r>
        <r>  0.0099  0.0306  0.0223  0.0306  0.0437  0.0009  0.0377  0.0009  0.0000 </r>
       </set>
       <set comment="band 25">
        <r>  0.0922  0.0004  0.0219  0.0004  0.0203  0.0290  0.0020  0.0290  0.0000 </r>
        <r>  0.0922  0.0004  0.0219  0.0004  0.0203  0.0290  0.0020  0.0290  0.0000 </r>
        <r>  0.0922  0.0004  0.0219  0.0004  0.0203  0.0290  0.0020  0.0290  0.0000 </r>
        <r>  0.0922  0.0004  0.0219  0.0004  0.0203  0.0290  0.0020  0.0290  0.0000 </r>
       </set>
       <set comment="band 26">
        <r>  0.1173  0.0008  0.0521  0.0060  0.0240  0.0044  0.0040  0.0106  0.0001 </r>
        <r>  0.1173  0.0008  0.0521  0.0060  0.0240  0.0044  0.0040  0.0106  0.0001 </r>
        <r>  0.0189  0.0114  0.0084  0.0166  0.0039  0.0400  0.0006  0.0462  0.0006 </r>
        <r>  0.0189  0.0114  0.0084  0.0166  0.0039  0.0400  0.0006  0.0462  0.0006 </r>
       </set>
      </set>
      <set comment="kpoint 10">
       <set comment="band 1">
        <r>  0.0487  0.0022  0.0022  0.0022  0.0481  0.0481  0.0000  0.0481  0.0000 </r>
        <r>  0.0487  0.0022  0.0022  0.0022  0.0481  0.0481  0.0000  0.0481  0.0000 </r>
        <r>  0.0487  0.0022  0.0022  0.0022  0.0481  0.0481  0.0000  0.0481  0.0000 </r>
        <r>  0.0487  0.0022  0.0022  0.0022  0.0481  0.0481  0.0000  0.0481  0.0000 </r>
       </set>
       <set comment="band 2">
        <r>  0.0554  0.0001  0.0004  0.0020  0.0200  0.0237  0.0000  0.0918  0.0002 </r>
        <r>  0.0132  0.0001  0.0002  0.0019  0.0921  0.0992  0.0002  0.0204  0.0002 </r>
        <r>  0.0567  0.0001  0.0004  0.0020  0.0187  0.0248  0.0000  0.0895  0.0002 </r>
        <r>  0.0125  0.0001  0.0002  0.0019  0.0944  0.0971  0.0002  0.0216  0.0002 </r>
       </set>
       <set comment="band 3">
        <r>  0.0373  0.0016  0.0007  0.0000  0.0527  0.0605  0.0002  0.0550  0.0002 </r>
        <r>  0.0316  0.0016  0.0007  0.0000  0.0625  0.0505  0.0002  0.0655  0.0002 </r>
        <r>  0.0313  0.0016  0.0007  0.0000  0.0629  0.0509  0.0002  0.0651  0.0002 </r>
        <r>  0.0375  0.0016  0.0007  0.0000  0.0523  0.0600  0.0002  0.0554  0.0002 </r>
       </set>
       <set comment="band 4">
        <r>  0.0106  0.0006  0.0013  0.0003  0.1006  0.0891  0.0004  0.0266  0.0001 </r>
        <r>  0.0586  0.0006  0.0014  0.0005  0.0187  0.0236  0.0001  0.0874  0.0001 </r>
        <r>  0.0152  0.0006  0.0013  0.0003  0.0917  0.0976  0.0003  0.0187  0.0001 </r>
        <r>  0.0533  0.0006  0.0014  0.0005  0.0266  0.0162  0.0001  0.0964  0.0001 </r>
       </set>
       <set comment="band 5">
        <r>  0.0000  0.0001  0.0005  0.0006  0.0243  0.0180  0.0567  0.0415  0.0951 </r>
        <r>  0.0000  0.0002  0.0005  0.0005  0.0205  0.0158  0.0676  0.0376  0.0951 </r>
        <r>  0.0000  0.0002  0.0005  0.0005  0.0202  0.0155  0.0684  0.0375  0.0950 </r>
        <r>  0.0000  0.0001  0.0005  0.0006  0.0246  0.0183  0.0559  0.0417  0.0950 </r>
       </set>
       <set comment="band 6">
        <r>  0.0000  0.0005  0.0002  0.0005  0.0398  0.0180  0.1334  0.0217  0.0231 </r>
        <r>  0.0000  0.0004  0.0002  0.0006  0.0393  0.0159  0.1349  0.0230  0.0231 </r>
        <r>  0.0000  0.0005  0.0001  0.0006  0.0439  0.0206  0.1218  0.0258  0.0230 </r>
        <r>  0.0000  0.0004  0.0002  0.0006  0.0352  0.0134  0.1465  0.0189  0.0230 </r>
       </set>
       <set comment="band 7">
        <r>  0.0000  0.0005  0.0006  0.0001  0.0148  0.0428  0.0457  0.0156  0.1176 </r>
        <r>  0.0000  0.0006  0.0006  0.0000  0.0192  0.0472  0.0333  0.0183  0.1176 </r>
        <r>  0.0000  0.0005  0.0006  0.0001  0.0148  0.0428  0.0456  0.0156  0.1178 </r>
        <r>  0.0000  0.0006  0.0006  0.0000  0.0191  0.0471  0.0333  0.0183  0.1178 </r>
       </set>
       <set comment="band 8">
        <r>  0.0000  0.0000  0.0000  0.0000  0.0509  0.0000  0.1010  0.0525  0.0358 </r>
        <r>  0.0000  0.0000  0.0000  0.0000  0.0509  0.0000  0.1010  0.0525  0.0358 </r>
        <r>  0.0000  0.0000  0.0000  0.0000  0.0509  0.0000  0.1010  0.0525  0.0358 </r>
        <r>  0.0000  0.0000  0.0000  0.0000  0.0509  0.0000  0.1010  0.0525  0.0358 </r>
       </set>
       <set comment="band 9">
        <r>  0.0000  0.0000  0.0000  0.0000  0.0180  0.0689  0.0358  0.0164  0.1010 </r>
        <r>  0.0000  0.0000  0.0000  0.0000  0.0180  0.0689  0.0358  0.0164  0.1010 </r>
        <r>  0.0000  0.0000  0.0000  0.0000  0.0180  0.0689  0.0358  0.0164  0.1010 </r>
        <r>  0.0000  0.0000  0.0000  0.0000  0.0180  0.0689  0.0358  0.0164  0.1010 </r>
       </set>
       <set comment="band 10">
        <r>  0.0000  0.0001  0.0001  0.0000  0.0486  0.0000  0.1072  0.0486  0.0357 </r>
        <r>  0.0000  0.0001  0.0001  0.0000  0.0486  0.0000  0.1072  0.0486  0.0357 </r>
        <r>  0.0000  0.0001  0.0001  0.0000  0.0486  0.0000  0.1072  0.0486  0.0357 </r>
        <r>  0.0000  0.0001  0.0001  0.0000  0.0486  0.0000  0.1072  0.0486  0.0357 </r>
       </set>
       <set comment="band 11">
        <r>  0.0000  0.0001  0.0000  0.0001  0.0000  0.0486  0.0000  0.0486  0.1429 </r>
        <r>  0.0000  0.0001  0.0000  0.0001  0.0000  0.0486  0.0000  0.0486  0.1429 </r>
        <r>  0.0000  0.0001  0.0000  0.0001  0.0000  0.0486  0.0000  0.0486  0.1429 </r>
        <r>  0.0000  0.0001  0.0000  0.0001  0.0000  0.0486  0.0000  0.0486  0.1429 </r>
       </set>
       <set comment="band 12">
        <r>  0.0000  0.0000  0.0001  0.0001  0.0486  0.0486  0.1072  0.0000  0.0357 </r>
        <r>  0.0000  0.0000  0.0001  0.0001  0.0486  0.0486  0.1072  0.0000  0.0357 </r>
        <r>  0.0000  0.0000  0.0001  0.0001  0.0486  0.0486  0.1072  0.0000  0.0357 </r>
        <r>  0.0000  0.0000  0.0001  0.0001  0.0486  0.0486  0.1072  0.0000  0.0357 </r>
       </set>
       <set comment="band 13">
        <r>  0.0010  0.0121  0.0095  0.0095  0.0210  0.1066  0.0094  0.0178  0.0368 </r>
        <r>  0.0008  0.0095  0.0121  0.0121  0.0112  0.0968  0.0155  0.0140  0.0368 </r>
        <r>  0.0010  0.0121  0.0095  0.0095  0.0211  0.1067  0.0094  0.0179  0.0368 </r>
        <r>  0.0008  0.0095  0.0121  0.0121  0.0112  0.0968  0.0155  0.0140  0.0368 </r>
       </set>
       <set comment="band 14">
        <r>  0.0009  0.0098  0.0099  0.0118  0.0498  0.0170  0.0233  0.0751  0.0239 </r>
        <r>  0.0008  0.0118  0.0117  0.0098  0.0430  0.0146  0.0275  0.0681  0.0239 </r>
        <r>  0.0008  0.0117  0.0118  0.0099  0.0426  0.0142  0.0277  0.0679  0.0239 </r>
        <r>  0.0009  0.0099  0.0098  0.0117  0.0502  0.0174  0.0231  0.0753  0.0239 </r>
       </set>
       <set comment="band 15">
        <r>  0.0007  0.0105  0.0130  0.0111  0.0629  0.0101  0.0412  0.0409  0.0132 </r>
        <r>  0.0010  0.0111  0.0086  0.0105  0.0796  0.0224  0.0309  0.0517  0.0132 </r>
        <r>  0.0008  0.0086  0.0111  0.0130  0.0701  0.0129  0.0367  0.0479  0.0133 </r>
        <r>  0.0009  0.0130  0.0105  0.0086  0.0724  0.0196  0.0353  0.0445  0.0133 </r>
       </set>
       <set comment="band 16">
        <r>  0.0190  0.0289  0.0289  0.0289  0.0189  0.0189  0.0000  0.0189  0.0000 </r>
        <r>  0.0190  0.0289  0.0289  0.0289  0.0189  0.0189  0.0000  0.0189  0.0000 </r>
        <r>  0.0190  0.0289  0.0289  0.0289  0.0189  0.0189  0.0000  0.0189  0.0000 </r>
        <r>  0.0190  0.0289  0.0289  0.0289  0.0189  0.0189  0.0000  0.0189  0.0000 </r>
       </set>
       <set comment="band 17">
        <r>  0.0000  0.0000  0.0000  0.0000  0.0697  0.0000  0.0784  0.0717  0.0277 </r>
        <r>  0.0000  0.0000  0.0000  0.0000  0.0697  0.0000  0.0784  0.0717  0.0277 </r>
        <r>  0.0000  0.0000  0.0000  0.0000  0.0697  0.0000  0.0784  0.0717  0.0277 </r>
        <r>  0.0000  0.0000  0.0000  0.0000  0.0697  0.0000  0.0784  0.0717  0.0277 </r>
       </set>
       <set comment="band 18">
        <r>  0.0000  0.0000  0.0000  0.0000  0.0246  0.0942  0.0277  0.0226  0.0784 </r>
        <r>  0.0000  0.0000  0.0000  0.0000  0.0246  0.0942  0.0277  0.0226  0.0784 </r>
        <r>  0.0000  0.0000  0.0000  0.0000  0.0246  0.0942  0.0277  0.0226  0.0784 </r>
        <r>  0.0000  0.0000  0.0000  0.0000  0.0246  0.0942  0.0277  0.0226  0.0784 </r>
       </set>
       <set comment="band 19">
        <r>  0.0000  0.0000  0.0000  0.0000  0.0741  0.0000  0.0749  0.0741  0.0250 </r>
        <r>  0.0000  0.0000  0.0000  0.0000  0.0741  0.0000  0.0749  0.0741  0.0250 </r>
        <r>  0.0000  0.0000  0.0000  0.0000  0.0741  0.0000  0.0749  0.0741  0.0250 </r>
        <r>  0.0000  0.0000  0.0000  0.0000  0.0741  0.0000  0.0749  0.0741  0.0250 </r>
       </set>
       <set comment="band 20">
        <r>  0.0000  0.0000  0.0000  0.0000  0.0000  0.0741  0.0000  0.0741  0.0998 </r>
        <r>  0.0000  0.0000  0.0000  0.0000  0.0000  0.0741  0.0000  0.0741  0.0999 </r>
        <r>  0.0000  0.0000  0.0000  0.0000  0.0000  0.0741  0.0000  0.0741  0.0999 </r>
        <r>  0.0000  0.0000  0.0000  0.0000  0.0000  0.0741  0.0000  0.0741  0.0998 </r>
       </set>
       <set comment="band 21">
        <r>  0.0000  0.0000  0.0000  0.0000  0.0741  0.0741  0.0749  0.0000  0.0250 </r>
        <r>  0.0000  0.0000  0.0000  0.0000  0.0741  0.0741  0.0749  0.0000  0.0250 </r>
        <r>  0.0000  0.0000  0.0000  0.0000  0.0741  0.0741  0.0749  0.0000  0.0250 </r>
        <r>  0.0000  0.0000  0.0000  0.0000  0.0741  0.0741  0.0749  0.0000  0.0250 </r>
       </set>
       <set comment="band 22">
        <r>  0.0050  0.0294  0.0271  0.0304  0.0151  0.0168  0.0150  0.0131  0.0189 </r>
        <r>  0.0043  0.0348  0.0321  0.0255  0.0131  0.0142  0.0179  0.0110  0.0189 </r>
        <r>  0.0042  0.0346  0.0324  0.0257  0.0130  0.0141  0.0180  0.0109  0.0189 </r>
        <r>  0.0051  0.0296  0.0269  0.0302  0.0152  0.0169  0.0149  0.0132  0.0189 </r>
       </set>
       <set comment="band 23">
        <r>  0.0056  0.0404  0.0255  0.0169  0.0148  0.0178  0.0235  0.0176  0.0083 </r>
        <r>  0.0037  0.0189  0.0384  0.0395  0.0094  0.0128  0.0309  0.0106  0.0083 </r>
        <r>  0.0064  0.0352  0.0205  0.0214  0.0170  0.0204  0.0206  0.0198  0.0081 </r>
        <r>  0.0029  0.0238  0.0436  0.0348  0.0074  0.0103  0.0339  0.0086  0.0081 </r>
       </set>
       <set comment="band 24">
        <r>  0.0033  0.0199  0.0371  0.0424  0.0117  0.0071  0.0146  0.0110  0.0259 </r>
        <r>  0.0060  0.0359  0.0192  0.0248  0.0192  0.0146  0.0043  0.0200  0.0259 </r>
        <r>  0.0033  0.0199  0.0368  0.0427  0.0117  0.0071  0.0145  0.0110  0.0260 </r>
        <r>  0.0060  0.0362  0.0192  0.0247  0.0190  0.0145  0.0043  0.0199  0.0260 </r>
       </set>
       <set comment="band 25">
        <r>  0.1708  0.0085  0.0037  0.0007  0.0071  0.0099  0.0000  0.0491  0.0001 </r>
        <r>  0.0295  0.0010  0.0048  0.0021  0.0504  0.0558  0.0001  0.0077  0.0001 </r>
        <r>  0.1762  0.0085  0.0037  0.0009  0.0060  0.0108  0.0000  0.0474  0.0001 </r>
        <r>  0.0261  0.0011  0.0049  0.0019  0.0520  0.0543  0.0001  0.0087  0.0001 </r>
       </set>
       <set comment="band 26">
        <r>  0.1090  0.0016  0.0035  0.0056  0.0272  0.0302  0.0001  0.0296  0.0001 </r>
        <r>  0.0923  0.0018  0.0037  0.0047  0.0323  0.0252  0.0001  0.0351  0.0001 </r>
        <r>  0.0916  0.0017  0.0037  0.0047  0.0325  0.0254  0.0001  0.0349  0.0001 </r>
        <r>  0.1097  0.0016  0.0035  0.0056  0.0270  0.0300  0.0001  0.0298  0.0001 </r>
       </set>
      </set>
     </set>
    </set>
   </array>
  </projected>
 </calculation>
 <structure name="finalpos"">
  <crystal>
   <varray name="basis"">
    <v>       3.62998245      0.00000000      0.00000000</v>
    <v>       0.00000000      3.62998245      0.00000000</v>
    <v>       0.00000000      0.00000000      3.62998245</v>
   </varray>
   <i name="volume""     47.83145306</i>
   <varray name="rec_basis"">
    <v>       0.27548343      0.00000000      0.00000000</v>
    <v>       0.00000000      0.27548343      0.00000000</v>
    <v>       0.00000000      0.00000000      0.27548343</v>
   </varray>
  </crystal>
  <varray name="positions"">
   <v>       0.00000000      0.00000000      0.00000000</v>
   <v>       0.50000000      0.50000000      0.00000000</v>
   <v>       0.50000000      0.00000000      0.50000000</v>
   <v>       0.00000000      0.50000000      0.50000000</v>
  </varray>
 </structure>
</modeling>
