   1   1   1   0
  0.1723025E+02  0.2899138E-09  0.2899138E-09  0.2899138E-09  0.5000000E-15
   1.0000000000000000E-004
  CAR 
 Au, FCC                                 
     27.10744662     -5.49833135  301      5.47360007      1.00000000
     -5.498  0.0000E+00  0.0000E+00
     -5.390  0.0000E+00  0.0000E+00
     -5.281  0.0000E+00  0.0000E+00
     -5.172  0.0000E+00  0.0000E+00
     -5.064  0.0000E+00  0.0000E+00
     -4.955  0.0000E+00  0.0000E+00
     -4.846  0.0000E+00  0.0000E+00
     -4.738  0.0000E+00  0.0000E+00
     -4.629  0.0000E+00  0.0000E+00
     -4.520  0.3705E-13  0.4027E-14
     -4.411  0.8195E-09  0.8907E-10
     -4.303  0.1823E-05  0.1982E-06
     -4.194  0.4258E-03  0.4647E-04
     -4.085  0.1136E-01  0.1281E-02
     -3.977  0.3938E-01  0.5562E-02
     -3.868  0.1982E-01  0.7716E-02
     -3.759  0.1971E-01  0.9858E-02
     -3.651  0.1044E+00  0.2120E-01
     -3.542  0.8346E-01  0.3027E-01
     -3.433  0.2449E-01  0.3294E-01
     -3.325  0.9916E-01  0.4371E-01
     -3.216  0.9005E-01  0.5350E-01
     -3.107  0.3245E-01  0.5703E-01
     -2.999  0.1286E+00  0.7100E-01
     -2.890  0.1218E+00  0.8424E-01
     -2.781  0.6884E-01  0.9172E-01
     -2.672  0.2272E+00  0.1164E+00
     -2.564  0.1610E+00  0.1339E+00
     -2.455  0.1202E+00  0.1470E+00
     -2.346  0.7844E-01  0.1555E+00
     -2.238  0.4269E-01  0.1601E+00
     -2.129  0.2351E+00  0.1857E+00
     -2.020  0.3074E+00  0.2191E+00
     -1.912  0.2268E+00  0.2438E+00
     -1.803  0.3364E+00  0.2803E+00
     -1.694  0.2861E+00  0.3114E+00
     -1.586  0.5221E+00  0.3682E+00
     -1.477  0.6782E+00  0.4419E+00
     -1.368  0.7820E+00  0.5269E+00
     -1.260  0.9276E+00  0.6277E+00
     -1.151  0.9880E+00  0.7350E+00
     -1.042  0.1642E+01  0.9135E+00
     -0.934  0.1776E+01  0.1106E+01
     -0.825  0.1648E+01  0.1286E+01
     -0.716  0.2054E+01  0.1509E+01
     -0.607  0.1966E+01  0.1723E+01
     -0.499  0.1485E+01  0.1884E+01
     -0.390  0.1682E+01  0.2067E+01
     -0.281  0.1713E+01  0.2253E+01
     -0.173  0.1391E+01  0.2404E+01
     -0.064  0.1248E+01  0.2540E+01
      0.045  0.1089E+01  0.2658E+01
      0.153  0.1937E+01  0.2869E+01
      0.262  0.1880E+01  0.3073E+01
      0.371  0.1866E+01  0.3276E+01
      0.479  0.2008E+01  0.3494E+01
      0.588  0.1710E+01  0.3680E+01
      0.697  0.2057E+01  0.3903E+01
      0.805  0.2417E+01  0.4166E+01
      0.914  0.2572E+01  0.4446E+01
      1.023  0.2381E+01  0.4704E+01
      1.132  0.2563E+01  0.4983E+01
      1.240  0.2972E+01  0.5306E+01
      1.349  0.3182E+01  0.5652E+01
      1.458  0.2216E+01  0.5893E+01
      1.566  0.1941E+01  0.6104E+01
      1.675  0.1717E+01  0.6290E+01
      1.784  0.1809E+01  0.6487E+01
      1.892  0.1597E+01  0.6660E+01
      2.001  0.1322E+01  0.6804E+01
      2.110  0.1731E+01  0.6992E+01
      2.218  0.2567E+01  0.7271E+01
      2.327  0.2772E+01  0.7572E+01
      2.436  0.1916E+01  0.7781E+01
      2.544  0.1187E+01  0.7910E+01
      2.653  0.1861E+01  0.8112E+01
      2.762  0.2539E+01  0.8388E+01
      2.870  0.1496E+01  0.8550E+01
      2.979  0.9039E+00  0.8649E+01
      3.088  0.1906E+01  0.8856E+01
      3.197  0.2199E+01  0.9095E+01
      3.305  0.1717E+01  0.9281E+01
      3.414  0.1945E+01  0.9493E+01
      3.523  0.3057E+01  0.9825E+01
      3.631  0.3321E+01  0.1019E+02
      3.740  0.1824E+01  0.1038E+02
      3.849  0.1088E+01  0.1050E+02
      3.957  0.4236E+00  0.1055E+02
      4.066  0.1446E+00  0.1056E+02
      4.175  0.6898E-01  0.1057E+02
      4.283  0.1458E+00  0.1059E+02
      4.392  0.4953E+00  0.1064E+02
      4.501  0.6711E+00  0.1071E+02
      4.609  0.4471E+00  0.1076E+02
      4.718  0.1564E+00  0.1078E+02
      4.827  0.1368E-01  0.1078E+02
      4.936  0.5329E-01  0.1079E+02
      5.044  0.2092E+00  0.1081E+02
      5.153  0.2296E+00  0.1083E+02
      5.262  0.6006E+00  0.1090E+02
      5.370  0.7110E+00  0.1098E+02
      5.479  0.2166E+00  0.1100E+02
      5.588  0.2437E+00  0.1103E+02
      5.696  0.1227E+00  0.1104E+02
      5.805  0.1836E+00  0.1106E+02
      5.914  0.2178E+00  0.1108E+02
      6.022  0.1986E+00  0.1111E+02
      6.131  0.2265E+00  0.1113E+02
      6.240  0.2154E+00  0.1115E+02
      6.348  0.3988E+00  0.1120E+02
      6.457  0.3796E+00  0.1124E+02
      6.566  0.2807E+00  0.1127E+02
      6.674  0.2856E+00  0.1130E+02
      6.783  0.4574E+00  0.1135E+02
      6.892  0.1838E+00  0.1137E+02
      7.001  0.2312E+00  0.1140E+02
      7.109  0.3547E+00  0.1143E+02
      7.218  0.2203E+00  0.1146E+02
      7.327  0.6689E-01  0.1146E+02
      7.435  0.2102E+00  0.1149E+02
      7.544  0.2376E+00  0.1151E+02
      7.653  0.3332E+00  0.1155E+02
      7.761  0.5107E+00  0.1161E+02
      7.870  0.3480E+00  0.1164E+02
      7.979  0.9881E-01  0.1165E+02
      8.087  0.2247E+00  0.1168E+02
      8.196  0.1448E+00  0.1169E+02
      8.305  0.3276E-01  0.1170E+02
      8.413  0.1941E+00  0.1172E+02
      8.522  0.5026E+00  0.1177E+02
      8.631  0.3505E+00  0.1181E+02
      8.740  0.3271E+00  0.1185E+02
      8.848  0.6634E+00  0.1192E+02
      8.957  0.4956E+00  0.1197E+02
      9.066  0.3276E+00  0.1201E+02
      9.174  0.1397E+00  0.1202E+02
      9.283  0.2384E+00  0.1205E+02
      9.392  0.4734E+00  0.1210E+02
      9.500  0.1637E+00  0.1212E+02
      9.609  0.2124E+00  0.1214E+02
      9.718  0.4748E+00  0.1219E+02
      9.826  0.4724E+00  0.1224E+02
      9.935  0.2184E+00  0.1227E+02
     10.044  0.1365E+00  0.1228E+02
     10.152  0.1235E+00  0.1230E+02
     10.261  0.2838E+00  0.1233E+02
     10.370  0.3678E+00  0.1237E+02
     10.478  0.2973E+00  0.1240E+02
     10.587  0.1228E+00  0.1241E+02
     10.696  0.3523E+00  0.1245E+02
     10.805  0.3712E+00  0.1249E+02
     10.913  0.1863E+00  0.1251E+02
     11.022  0.4661E+00  0.1256E+02
     11.131  0.4218E+00  0.1261E+02
     11.239  0.4509E+00  0.1266E+02
     11.348  0.5362E+00  0.1272E+02
     11.457  0.2126E+00  0.1274E+02
     11.565  0.3774E+00  0.1278E+02
     11.674  0.7826E+00  0.1287E+02
     11.783  0.6175E+00  0.1293E+02
     11.891  0.1503E+00  0.1295E+02
     12.000  0.1209E+00  0.1296E+02
     12.109  0.6034E-01  0.1297E+02
     12.217  0.9414E-02  0.1297E+02
     12.326  0.1014E+00  0.1298E+02
     12.435  0.3441E+00  0.1302E+02
     12.544  0.4429E+00  0.1307E+02
     12.652  0.2524E+00  0.1309E+02
     12.761  0.1301E+00  0.1311E+02
     12.870  0.1593E+00  0.1312E+02
     12.978  0.4899E+00  0.1318E+02
     13.087  0.4085E+00  0.1322E+02
     13.196  0.2703E+00  0.1325E+02
     13.304  0.3153E+00  0.1329E+02
     13.413  0.2727E+00  0.1332E+02
     13.522  0.7068E+00  0.1339E+02
     13.630  0.8108E+00  0.1348E+02
     13.739  0.2765E+00  0.1351E+02
     13.848  0.3417E+00  0.1355E+02
     13.956  0.4169E+00  0.1359E+02
     14.065  0.1613E+00  0.1361E+02
     14.174  0.4340E+00  0.1366E+02
     14.283  0.3541E+00  0.1370E+02
     14.391  0.1292E+00  0.1371E+02
     14.500  0.2410E+00  0.1374E+02
     14.609  0.1729E+00  0.1376E+02
     14.717  0.3337E+00  0.1379E+02
     14.826  0.4149E+00  0.1384E+02
     14.935  0.4557E+00  0.1389E+02
     15.043  0.5585E+00  0.1395E+02
     15.152  0.4619E+00  0.1400E+02
     15.261  0.3863E+00  0.1404E+02
     15.369  0.1715E+00  0.1406E+02
     15.478  0.2668E+00  0.1409E+02
     15.587  0.3743E+00  0.1413E+02
     15.695  0.4810E+00  0.1418E+02
     15.804  0.7629E+00  0.1426E+02
     15.913  0.4331E+00  0.1431E+02
     16.021  0.4878E+00  0.1436E+02
     16.130  0.5773E+00  0.1443E+02
     16.239  0.5239E+00  0.1448E+02
     16.348  0.5535E+00  0.1454E+02
     16.456  0.7122E+00  0.1462E+02
     16.565  0.5931E+00  0.1468E+02
     16.674  0.5490E+00  0.1474E+02
     16.782  0.7568E+00  0.1483E+02
     16.891  0.6521E+00  0.1490E+02
     17.000  0.2104E+00  0.1492E+02
     17.108  0.1700E-01  0.1492E+02
     17.217  0.3201E-01  0.1493E+02
     17.326  0.2751E+00  0.1496E+02
     17.434  0.4500E+00  0.1500E+02
     17.543  0.3535E+00  0.1504E+02
     17.652  0.5387E+00  0.1510E+02
     17.760  0.9981E+00  0.1521E+02
     17.869  0.9984E+00  0.1532E+02
     17.978  0.5428E+00  0.1538E+02
     18.087  0.5021E+00  0.1543E+02
     18.195  0.5562E+00  0.1549E+02
     18.304  0.5914E+00  0.1556E+02
     18.413  0.4792E+00  0.1561E+02
     18.521  0.1612E+00  0.1563E+02
     18.630  0.2661E+00  0.1565E+02
     18.739  0.4956E+00  0.1571E+02
     18.847  0.2552E+00  0.1574E+02
     18.956  0.2331E+00  0.1576E+02
     19.065  0.5582E+00  0.1582E+02
     19.173  0.7833E+00  0.1591E+02
     19.282  0.7925E+00  0.1599E+02
     19.391  0.5826E+00  0.1606E+02
     19.499  0.3673E+00  0.1610E+02
     19.608  0.2513E+00  0.1612E+02
     19.717  0.3043E+00  0.1616E+02
     19.825  0.6659E+00  0.1623E+02
     19.934  0.9318E+00  0.1633E+02
     20.043  0.4503E+00  0.1638E+02
     20.152  0.2087E+00  0.1640E+02
     20.260  0.2576E+00  0.1643E+02
     20.369  0.4159E+00  0.1648E+02
     20.478  0.6532E+00  0.1655E+02
     20.586  0.6270E+00  0.1662E+02
     20.695  0.6332E+00  0.1668E+02
     20.804  0.7051E+00  0.1676E+02
     20.912  0.7864E+00  0.1685E+02
     21.021  0.6330E+00  0.1691E+02
     21.130  0.4655E+00  0.1697E+02
     21.238  0.3002E+00  0.1700E+02
     21.347  0.4900E+00  0.1705E+02
     21.456  0.7279E+00  0.1713E+02
     21.564  0.9270E+00  0.1723E+02
     21.673  0.5048E+00  0.1729E+02
     21.782  0.2139E+00  0.1731E+02
     21.891  0.2589E+00  0.1734E+02
     21.999  0.3427E+00  0.1737E+02
     22.108  0.2790E+00  0.1740E+02
     22.217  0.3432E+00  0.1744E+02
     22.325  0.2359E+00  0.1747E+02
     22.434  0.2870E+00  0.1750E+02
     22.543  0.6957E+00  0.1757E+02
     22.651  0.4649E+00  0.1763E+02
     22.760  0.1160E+00  0.1764E+02
     22.869  0.1468E+00  0.1765E+02
     22.977  0.3274E+00  0.1769E+02
     23.086  0.5120E+00  0.1775E+02
     23.195  0.2951E+00  0.1778E+02
     23.303  0.1706E+00  0.1780E+02
     23.412  0.6832E-01  0.1780E+02
     23.521  0.1424E-01  0.1780E+02
     23.629  0.3775E-02  0.1781E+02
     23.738  0.4919E-01  0.1781E+02
     23.847  0.2575E+00  0.1784E+02
     23.956  0.3381E+00  0.1788E+02
     24.064  0.1493E+00  0.1789E+02
     24.173  0.2453E+00  0.1792E+02
     24.282  0.1967E+00  0.1794E+02
     24.390  0.1902E+00  0.1796E+02
     24.499  0.1289E+00  0.1797E+02
     24.608  0.2241E-01  0.1798E+02
     24.716  0.1223E-02  0.1798E+02
     24.825  0.1718E-01  0.1798E+02
     24.934  0.6929E-01  0.1799E+02
     25.042  0.5022E-01  0.1799E+02
     25.151  0.6301E-02  0.1799E+02
     25.260  0.1135E-03  0.1799E+02
     25.368  0.1030E-04  0.1799E+02
     25.477  0.1287E-02  0.1799E+02
     25.586  0.1941E-01  0.1799E+02
     25.695  0.3938E-01  0.1800E+02
     25.803  0.1136E-01  0.1800E+02
     25.912  0.4258E-03  0.1800E+02
     26.021  0.1823E-05  0.1800E+02
     26.129  0.8195E-09  0.1800E+02
     26.238  0.3705E-13  0.1800E+02
     26.347  0.0000E+00  0.1800E+02
     26.455  0.0000E+00  0.1800E+02
     26.564  0.0000E+00  0.1800E+02
     26.673  0.0000E+00  0.1800E+02
     26.781  0.0000E+00  0.1800E+02
     26.890  0.0000E+00  0.1800E+02
     26.999  0.0000E+00  0.1800E+02
     27.107  0.0000E+00  0.1800E+02
     27.10744662     -5.49833135  301      5.47360007      1.00000000
     -5.498  0.0000E+00  0.0000E+00  0.0000E+00  0.0000E+00  0.0000E+00  0.0000E+00  0.0000E+00  0.0000E+00  0.0000E+00
     -5.390  0.0000E+00  0.0000E+00  0.0000E+00  0.0000E+00  0.0000E+00  0.0000E+00  0.0000E+00  0.0000E+00  0.0000E+00
     -5.281  0.0000E+00  0.0000E+00  0.0000E+00  0.0000E+00  0.0000E+00  0.0000E+00  0.0000E+00  0.0000E+00  0.0000E+00
     -5.172  0.0000E+00  0.0000E+00  0.0000E+00  0.0000E+00  0.0000E+00  0.0000E+00  0.0000E+00  0.0000E+00  0.0000E+00
     -5.064  0.0000E+00  0.0000E+00  0.0000E+00  0.0000E+00  0.0000E+00  0.0000E+00  0.0000E+00  0.0000E+00  0.0000E+00
     -4.955  0.0000E+00  0.0000E+00  0.0000E+00  0.0000E+00  0.0000E+00  0.0000E+00  0.0000E+00  0.0000E+00  0.0000E+00
     -4.846  0.0000E+00  0.0000E+00  0.0000E+00  0.0000E+00  0.0000E+00  0.0000E+00  0.0000E+00  0.0000E+00  0.0000E+00
     -4.738  0.0000E+00  0.0000E+00  0.0000E+00  0.0000E+00  0.0000E+00  0.0000E+00  0.0000E+00  0.0000E+00  0.0000E+00
     -4.629  0.0000E+00  0.0000E+00  0.0000E+00  0.0000E+00  0.0000E+00  0.0000E+00  0.0000E+00  0.0000E+00  0.0000E+00
     -4.520  0.2227E-13  0.6969E-16  0.6969E-16  0.6969E-16  0.2948E-17  0.2948E-17  0.1510E-27  0.2948E-17  0.3824E-27
     -4.411  0.4927E-09  0.1541E-11  0.1541E-11  0.1541E-11  0.6521E-13  0.6521E-13  0.3340E-23  0.6521E-13  0.8458E-23
     -4.303  0.1096E-05  0.3428E-08  0.3428E-08  0.3428E-08  0.1450E-09  0.1450E-09  0.7428E-20  0.1450E-09  0.1881E-19
     -4.194  0.2560E-03  0.8008E-06  0.8008E-06  0.8008E-06  0.3388E-07  0.3388E-07  0.3214E-17  0.3388E-07  0.8831E-17
     -4.085  0.6830E-02  0.2137E-04  0.2137E-04  0.2137E-04  0.9041E-06  0.9041E-06  0.5794E-13  0.9041E-06  0.1738E-12
     -3.977  0.2368E-01  0.7408E-04  0.7408E-04  0.7409E-04  0.3135E-05  0.3134E-05  0.2263E-09  0.3135E-05  0.6787E-09
     -3.868  0.1191E-01  0.3723E-04  0.3723E-04  0.4329E-04  0.1847E-05  0.1590E-05  0.9162E-07  0.1847E-05  0.2748E-06
     -3.759  0.1155E-01  0.3492E-04  0.3492E-04  0.3082E-03  0.1374E-04  0.2152E-05  0.4131E-05  0.1374E-04  0.1239E-04
     -3.651  0.6104E-01  0.1841E-03  0.1841E-03  0.1732E-02  0.7725E-04  0.1162E-04  0.2340E-04  0.7726E-04  0.7020E-04
     -3.542  0.4881E-01  0.1513E-03  0.1513E-03  0.1381E-02  0.6187E-04  0.1130E-04  0.1870E-04  0.6187E-04  0.5610E-04
     -3.433  0.1405E-01  0.2541E-03  0.2541E-03  0.1761E-03  0.2276E-04  0.1070E-03  0.4882E-05  0.2276E-04  0.1465E-04
     -3.325  0.5624E-01  0.1537E-02  0.1537E-02  0.1587E-03  0.1033E-03  0.6841E-03  0.1830E-04  0.1033E-03  0.5490E-04
     -3.216  0.5106E-01  0.1394E-02  0.1401E-02  0.1464E-03  0.9649E-04  0.6221E-03  0.1837E-04  0.9683E-04  0.4956E-04
     -3.107  0.1797E-01  0.3274E-03  0.8053E-03  0.1708E-03  0.1095E-03  0.1973E-03  0.1210E-03  0.1313E-03  0.6225E-05
     -2.999  0.7036E-01  0.6717E-03  0.4455E-02  0.6694E-03  0.3934E-03  0.5671E-03  0.9416E-03  0.5660E-03  0.1151E-06
     -2.890  0.6665E-01  0.4677E-03  0.4611E-02  0.5092E-03  0.2604E-03  0.4227E-03  0.1041E-02  0.4242E-03  0.5768E-05
     -2.781  0.3666E-01  0.7441E-03  0.7506E-03  0.2157E-02  0.1071E-02  0.1586E-03  0.3263E-03  0.2091E-03  0.1963E-03
     -2.672  0.1199E+00  0.3046E-02  0.2957E-03  0.9207E-02  0.4592E-02  0.4910E-03  0.7292E-03  0.7155E-03  0.8559E-03
     -2.564  0.8427E-01  0.2095E-02  0.3916E-03  0.6413E-02  0.3418E-02  0.7013E-03  0.4680E-03  0.1027E-02  0.5885E-03
     -2.455  0.5999E-01  0.1275E-02  0.1132E-02  0.4261E-02  0.3254E-02  0.2077E-02  0.1417E-03  0.3054E-02  0.3566E-03
     -2.346  0.3890E-01  0.8231E-03  0.8311E-03  0.2711E-02  0.2164E-02  0.1508E-02  0.8397E-04  0.2162E-02  0.2261E-03
     -2.238  0.2052E-01  0.9527E-03  0.1641E-02  0.3018E-03  0.4560E-03  0.1746E-02  0.6463E-03  0.4874E-03  0.1099E-03
     -2.129  0.1106E+00  0.4897E-02  0.1100E-01  0.3862E-03  0.2738E-02  0.9979E-02  0.5559E-02  0.3017E-02  0.4546E-03
     -2.020  0.1405E+00  0.5706E-02  0.1367E-01  0.8383E-03  0.6839E-02  0.1436E-01  0.7175E-02  0.7177E-02  0.4335E-03
     -1.912  0.9918E-01  0.3142E-02  0.1159E-01  0.7186E-03  0.6405E-02  0.1198E-01  0.7156E-02  0.6419E-02  0.1112E-03
     -1.803  0.1449E+00  0.3354E-02  0.1984E-01  0.9883E-03  0.9200E-02  0.1689E-01  0.1328E-01  0.9151E-02  0.3684E-04
     -1.694  0.1038E+00  0.1859E-02  0.1135E-01  0.2135E-02  0.2278E-01  0.2555E-01  0.7001E-02  0.2221E-01  0.2030E-03
     -1.586  0.1423E+00  0.3441E-02  0.3227E-02  0.8899E-02  0.7779E-01  0.7799E-01  0.2172E-02  0.6995E-01  0.1478E-02
     -1.477  0.1945E+00  0.7245E-02  0.2020E-02  0.1739E-01  0.9972E-01  0.8600E-01  0.1043E-01  0.7419E-01  0.3407E-02
     -1.368  0.2025E+00  0.7693E-02  0.8682E-02  0.1713E-01  0.1018E+00  0.8209E-01  0.8633E-01  0.6316E-01  0.3638E-02
     -1.260  0.1802E+00  0.4689E-02  0.1566E-01  0.6645E-02  0.1159E+00  0.1162E+00  0.1787E+00  0.8709E-01  0.2201E-02
     -1.151  0.1693E+00  0.4316E-02  0.2302E-01  0.5924E-02  0.1075E+00  0.8074E-01  0.3028E+00  0.5017E-01  0.8654E-02
     -1.042  0.2464E+00  0.7007E-02  0.3473E-01  0.1042E-01  0.3119E+00  0.1387E+00  0.4350E+00  0.7547E-01  0.1282E-01
     -0.934  0.2183E+00  0.9902E-02  0.2557E-01  0.1106E-01  0.4628E+00  0.1908E+00  0.3930E+00  0.9003E-01  0.8706E-02
     -0.825  0.1725E+00  0.1041E-01  0.2775E-01  0.7915E-02  0.5521E+00  0.1398E+00  0.3500E+00  0.5608E-01  0.5207E-02
     -0.716  0.1650E+00  0.1210E-01  0.2979E-01  0.8836E-02  0.7938E+00  0.1259E+00  0.4761E+00  0.5235E-01  0.9339E-02
     -0.607  0.1299E+00  0.1070E-01  0.1929E-01  0.1424E-01  0.7627E+00  0.1795E+00  0.4038E+00  0.5996E-01  0.4049E-01
     -0.499  0.1069E+00  0.1342E-01  0.8347E-02  0.2541E-01  0.5562E+00  0.1785E+00  0.2103E+00  0.3814E-01  0.7959E-01
     -0.390  0.8602E-01  0.1741E-01  0.6897E-02  0.2772E-01  0.6732E+00  0.2138E+00  0.2563E+00  0.2762E-01  0.8709E-01
     -0.281  0.5493E-01  0.1790E-01  0.7531E-02  0.1853E-01  0.6001E+00  0.2390E+00  0.3581E+00  0.2204E-01  0.1194E+00
     -0.173  0.3408E-01  0.1995E-01  0.1010E-01  0.1753E-01  0.4911E+00  0.1628E+00  0.2991E+00  0.2049E-01  0.1079E+00
     -0.064  0.3063E-01  0.2041E-01  0.1403E-01  0.1802E-01  0.3732E+00  0.2080E+00  0.2676E+00  0.2324E-01  0.8346E-01
      0.045  0.1258E-01  0.1522E-01  0.1253E-01  0.1613E-01  0.4038E+00  0.1753E+00  0.2062E+00  0.2288E-01  0.5566E-01
      0.153  0.2049E-01  0.2688E-01  0.2773E-01  0.2538E-01  0.6816E+00  0.3458E+00  0.3286E+00  0.5127E-01  0.1344E+00
      0.262  0.1557E-01  0.3399E-01  0.2030E-01  0.2117E-01  0.3363E+00  0.3554E+00  0.5884E+00  0.7138E-01  0.1469E+00
      0.371  0.1615E-01  0.2908E-01  0.1591E-01  0.2100E-01  0.2782E+00  0.3859E+00  0.5879E+00  0.1464E+00  0.1134E+00
      0.479  0.2226E-01  0.1699E-01  0.2230E-01  0.2304E-01  0.4789E+00  0.4474E+00  0.3269E+00  0.2330E+00  0.1708E+00
      0.588  0.2275E-01  0.1555E-01  0.1539E-01  0.2339E-01  0.3820E+00  0.3435E+00  0.3700E+00  0.1398E+00  0.1708E+00
      0.697  0.2962E-01  0.2102E-01  0.1321E-01  0.2584E-01  0.3885E+00  0.4031E+00  0.5929E+00  0.1404E+00  0.1794E+00
      0.805  0.5237E-01  0.1739E-01  0.3466E-01  0.3547E-01  0.5019E+00  0.6364E+00  0.4473E+00  0.1766E+00  0.2044E+00
      0.914  0.5116E-01  0.1619E-01  0.5205E-01  0.4421E-01  0.6078E+00  0.6961E+00  0.2660E+00  0.2108E+00  0.2950E+00
      1.023  0.3594E-01  0.1465E-01  0.3317E-01  0.2684E-01  0.5558E+00  0.4367E+00  0.4296E+00  0.2301E+00  0.3436E+00
      1.132  0.2839E-01  0.1415E-01  0.2347E-01  0.1600E-01  0.5220E+00  0.4358E+00  0.5876E+00  0.3693E+00  0.3075E+00
      1.240  0.3524E-01  0.1795E-01  0.4401E-01  0.2105E-01  0.5330E+00  0.6736E+00  0.4959E+00  0.4702E+00  0.3733E+00
      1.349  0.5741E-01  0.2639E-01  0.7643E-01  0.3417E-01  0.5089E+00  0.7466E+00  0.3284E+00  0.6297E+00  0.4031E+00
      1.458  0.3940E-01  0.1724E-01  0.4099E-01  0.2315E-01  0.2228E+00  0.4883E+00  0.2707E+00  0.5583E+00  0.3132E+00
      1.566  0.4982E-01  0.1575E-01  0.5266E-01  0.1890E-01  0.1729E+00  0.4436E+00  0.3334E+00  0.3425E+00  0.2833E+00
      1.675  0.3494E-01  0.1369E-01  0.5107E-01  0.1461E-01  0.1219E+00  0.4153E+00  0.2340E+00  0.3213E+00  0.3133E+00
      1.784  0.1692E-01  0.1468E-01  0.3990E-01  0.1613E-01  0.1363E+00  0.3669E+00  0.1758E+00  0.4161E+00  0.4416E+00
      1.892  0.1062E-01  0.1070E-01  0.2748E-01  0.1274E-01  0.1242E+00  0.1943E+00  0.2512E+00  0.3173E+00  0.4985E+00
      2.001  0.9392E-02  0.3773E-02  0.1311E-01  0.5616E-02  0.4929E-01  0.9473E-01  0.2605E+00  0.2332E+00  0.5501E+00
      2.110  0.1292E-01  0.4434E-02  0.1350E-01  0.8878E-02  0.4940E-01  0.1385E+00  0.2630E+00  0.3149E+00  0.7978E+00
      2.218  0.3093E-01  0.1467E-01  0.4408E-01  0.1856E-01  0.8746E-01  0.3771E+00  0.3982E+00  0.4559E+00  0.9208E+00
      2.327  0.4427E-01  0.2087E-01  0.5837E-01  0.2225E-01  0.1151E+00  0.3861E+00  0.5135E+00  0.4168E+00  0.9397E+00
      2.436  0.2744E-01  0.1361E-01  0.2605E-01  0.1761E-01  0.7953E-01  0.1219E+00  0.4612E+00  0.2281E+00  0.7800E+00
      2.544  0.8794E-02  0.5273E-02  0.6807E-02  0.9853E-02  0.3037E-01  0.6170E-01  0.2731E+00  0.2028E+00  0.5103E+00
      2.653  0.1302E-01  0.4360E-02  0.1953E-01  0.7385E-02  0.6008E-01  0.2194E+00  0.2078E+00  0.4802E+00  0.7361E+00
      2.762  0.2512E-01  0.6461E-02  0.3509E-01  0.7946E-02  0.1562E+00  0.3140E+00  0.3820E+00  0.5782E+00  0.8763E+00
      2.870  0.1471E-01  0.4771E-02  0.1587E-01  0.4543E-02  0.9089E-01  0.1480E+00  0.1904E+00  0.2969E+00  0.6426E+00
      2.979  0.4799E-02  0.5290E-02  0.7475E-02  0.5023E-02  0.3408E-01  0.1345E+00  0.6116E-01  0.1792E+00  0.4217E+00
      3.088  0.1017E-01  0.6261E-02  0.1558E-01  0.7008E-02  0.7637E-01  0.2931E+00  0.1009E+00  0.6161E+00  0.6877E+00
      3.197  0.1179E-01  0.4077E-02  0.1582E-01  0.5226E-02  0.1289E+00  0.2594E+00  0.1481E+00  0.7329E+00  0.7964E+00
      3.305  0.1011E-01  0.3074E-02  0.8985E-02  0.6157E-02  0.1570E+00  0.1253E+00  0.1338E+00  0.5836E+00  0.6190E+00
      3.414  0.9220E-02  0.2291E-02  0.5548E-02  0.5755E-02  0.1812E+00  0.1677E+00  0.1690E+00  0.7866E+00  0.5505E+00
      3.523  0.1817E-01  0.3368E-02  0.1058E-01  0.6880E-02  0.2624E+00  0.3560E+00  0.2392E+00  0.1472E+01  0.5894E+00
      3.631  0.5012E-01  0.7289E-02  0.2382E-01  0.1299E-01  0.2873E+00  0.5431E+00  0.2770E+00  0.1431E+01  0.5584E+00
      3.740  0.3982E-01  0.6255E-02  0.1285E-01  0.1171E-01  0.1855E+00  0.3125E+00  0.1772E+00  0.7382E+00  0.2624E+00
      3.849  0.9591E-02  0.5011E-02  0.5300E-02  0.6487E-02  0.3950E-01  0.1260E+00  0.3361E-01  0.7793E+00  0.4480E-01
      3.957  0.5960E-02  0.5574E-02  0.5652E-02  0.5171E-02  0.3160E-02  0.6291E-01  0.3769E-02  0.2926E+00  0.1368E-01
      4.066  0.8895E-02  0.5211E-02  0.5215E-02  0.3344E-02  0.5956E-03  0.5291E-01  0.8343E-02  0.1641E-01  0.2533E-01
      4.175  0.5168E-02  0.2467E-02  0.2480E-02  0.1332E-02  0.1900E-03  0.2891E-01  0.4912E-02  0.3010E-03  0.1462E-01
      4.283  0.1376E-01  0.3636E-02  0.4629E-02  0.1032E-02  0.3310E-03  0.6465E-01  0.1283E-01  0.6950E-03  0.2985E-01
      4.392  0.5196E-01  0.1018E-01  0.2006E-01  0.2702E-02  0.1940E-02  0.2174E+00  0.5362E-01  0.5154E-02  0.8138E-01
      4.501  0.7567E-01  0.1207E-01  0.3478E-01  0.3317E-02  0.2741E-02  0.2872E+00  0.7818E-01  0.1167E-01  0.9061E-01
      4.609  0.5602E-01  0.8064E-02  0.3523E-01  0.4449E-02  0.3236E-02  0.1613E+00  0.6009E-01  0.2514E-01  0.2939E-01
      4.718  0.1954E-01  0.3625E-02  0.1338E-01  0.2937E-02  0.2116E-02  0.4478E-01  0.2407E-01  0.1596E-01  0.4385E-02
      4.827  0.1719E-02  0.3541E-03  0.1215E-02  0.3283E-03  0.2289E-03  0.3077E-02  0.2239E-02  0.1978E-02  0.1579E-03
      4.936  0.8427E-02  0.5619E-03  0.7395E-02  0.5619E-03  0.2123E-03  0.9334E-02  0.7254E-02  0.9329E-02  0.1134E-05
      5.044  0.3354E-01  0.1846E-02  0.3561E-01  0.1880E-02  0.8417E-03  0.3180E-01  0.2664E-01  0.3181E-01  0.1085E-03
      5.153  0.3142E-01  0.7054E-02  0.3647E-01  0.8717E-02  0.1734E-01  0.2071E-01  0.2614E-01  0.2127E-01  0.3478E-02
      5.262  0.6953E-01  0.3523E-01  0.3142E-01  0.4811E-01  0.1647E+00  0.9168E-02  0.8244E-01  0.1280E-01  0.1670E-01
      5.370  0.9488E-01  0.3480E-01  0.2266E-01  0.5116E-01  0.2340E+00  0.5100E-02  0.1130E+00  0.9003E-02  0.1391E-01
      5.479  0.3465E-01  0.7109E-02  0.3306E-02  0.1669E-01  0.7890E-01  0.6355E-03  0.3321E-01  0.1945E-02  0.4598E-02
      5.588  0.4510E-01  0.4137E-02  0.5346E-03  0.2338E-01  0.9191E-01  0.2029E-03  0.3032E-01  0.2108E-02  0.7887E-02
      5.696  0.2255E-01  0.2208E-02  0.2610E-02  0.1007E-01  0.3810E-01  0.6069E-02  0.1526E-01  0.2428E-02  0.3617E-02
      5.805  0.3231E-01  0.4390E-02  0.1967E-01  0.3379E-02  0.2736E-02  0.4875E-01  0.2340E-01  0.1269E-01  0.2823E-02
      5.914  0.3828E-01  0.4935E-02  0.2587E-01  0.3206E-02  0.7019E-03  0.5919E-01  0.2722E-01  0.1469E-01  0.3034E-02
      6.022  0.3494E-01  0.1833E-02  0.3850E-01  0.7087E-03  0.1296E-03  0.5010E-01  0.2008E-01  0.6966E-02  0.1159E-02
      6.131  0.4019E-01  0.2507E-02  0.4491E-01  0.8313E-03  0.7450E-04  0.5708E-01  0.2066E-01  0.5998E-02  0.2484E-02
      6.240  0.3664E-01  0.1311E-01  0.2055E-01  0.8675E-02  0.1845E-02  0.5593E-01  0.9156E-02  0.2877E-02  0.1705E-01
      6.348  0.6275E-01  0.2738E-01  0.2823E-01  0.2589E-01  0.1295E-01  0.8412E-01  0.1337E-01  0.1302E-01  0.3764E-01
      6.457  0.7432E-01  0.1852E-01  0.2720E-01  0.1866E-01  0.1381E-01  0.8561E-01  0.1871E-01  0.1439E-01  0.2815E-01
      6.566  0.6686E-01  0.8104E-02  0.2787E-01  0.3147E-02  0.2110E-02  0.8191E-01  0.2060E-01  0.4556E-02  0.1093E-01
      6.674  0.4867E-01  0.5061E-02  0.6346E-01  0.2525E-02  0.1208E-03  0.5181E-01  0.2086E-01  0.1683E-01  0.3710E-02
      6.783  0.7708E-01  0.1051E-01  0.9547E-01  0.6529E-02  0.2319E-03  0.8337E-01  0.3565E-01  0.2722E-01  0.5891E-02
      6.892  0.2981E-01  0.7429E-02  0.2987E-01  0.5701E-02  0.9687E-03  0.3675E-01  0.1667E-01  0.8136E-02  0.3099E-02
      7.001  0.1690E-01  0.1858E-01  0.3386E-01  0.1870E-01  0.5486E-02  0.3361E-01  0.2744E-01  0.6438E-02  0.3014E-02
      7.109  0.5045E-01  0.1767E-01  0.5684E-01  0.1639E-01  0.4790E-02  0.6859E-01  0.3777E-01  0.7348E-02  0.3076E-02
      7.218  0.4737E-01  0.4015E-02  0.3807E-01  0.2254E-02  0.7751E-03  0.5351E-01  0.2053E-01  0.3083E-02  0.1024E-02
      7.327  0.1960E-01  0.1826E-02  0.5570E-02  0.2809E-02  0.8961E-02  0.7932E-02  0.4416E-02  0.4890E-03  0.4186E-03
      7.435  0.7265E-01  0.8578E-02  0.1056E-02  0.1589E-01  0.5176E-01  0.7143E-03  0.9550E-02  0.7608E-03  0.1750E-02
      7.544  0.7426E-01  0.7914E-02  0.1252E-01  0.1353E-01  0.4212E-01  0.1307E-01  0.1385E-01  0.5662E-02  0.1478E-02
      7.653  0.7018E-01  0.5266E-02  0.6441E-01  0.5271E-02  0.8170E-02  0.5486E-01  0.2569E-01  0.1973E-01  0.5265E-03
      7.761  0.8444E-01  0.1219E-01  0.1161E+00  0.1717E-01  0.3380E-01  0.6105E-01  0.2769E-01  0.1585E-01  0.1731E-02
      7.870  0.6441E-01  0.1412E-01  0.5728E-01  0.2190E-01  0.4582E-01  0.2215E-01  0.1753E-01  0.5675E-02  0.2265E-02
      7.979  0.2716E-01  0.3412E-02  0.4997E-02  0.1065E-01  0.1904E-01  0.1523E-02  0.3822E-02  0.1027E-02  0.2739E-02
      8.087  0.7532E-01  0.3540E-02  0.2512E-03  0.2989E-01  0.4752E-01  0.1132E-03  0.4939E-02  0.1714E-02  0.1060E-01
      8.196  0.4856E-01  0.2254E-02  0.1741E-03  0.1924E-01  0.3055E-01  0.1094E-03  0.3181E-02  0.1141E-02  0.6839E-02
      8.305  0.9611E-02  0.7222E-03  0.2852E-02  0.2138E-02  0.2793E-02  0.2492E-02  0.1829E-02  0.2226E-02  0.6347E-03
      8.413  0.5771E-01  0.5317E-02  0.2456E-01  0.5456E-02  0.4878E-02  0.2224E-01  0.1041E-01  0.1610E-01  0.1417E-02
      8.522  0.1573E+00  0.1152E-01  0.5614E-01  0.2363E-01  0.3291E-01  0.4306E-01  0.1469E-01  0.3262E-01  0.9029E-02
      8.631  0.1124E+00  0.5878E-02  0.3312E-01  0.2181E-01  0.3506E-01  0.2183E-01  0.6811E-02  0.2318E-01  0.8596E-02
      8.740  0.1429E+00  0.4926E-02  0.7773E-02  0.9308E-02  0.3813E-01  0.3040E-01  0.2014E-02  0.3032E-01  0.2108E-02
      8.848  0.2957E+00  0.1110E-01  0.2525E-01  0.1398E-01  0.6057E-01  0.6810E-01  0.7285E-02  0.4798E-01  0.2551E-02
      8.957  0.1772E+00  0.7314E-02  0.6865E-01  0.5729E-02  0.2018E-01  0.6672E-01  0.1331E-01  0.1612E-01  0.1319E-02
      9.066  0.7714E-01  0.9827E-02  0.6743E-01  0.9238E-02  0.1554E-01  0.4080E-01  0.1246E-01  0.3242E-02  0.2718E-03
      9.174  0.3677E-01  0.8873E-02  0.1625E-01  0.8864E-02  0.1421E-01  0.7805E-02  0.4928E-02  0.1510E-02  0.6502E-04
      9.283  0.8652E-01  0.5792E-02  0.2748E-01  0.6060E-02  0.6777E-02  0.2296E-01  0.1126E-01  0.1309E-01  0.4938E-03
      9.392  0.1687E+00  0.1091E-01  0.5673E-01  0.1104E-01  0.9413E-02  0.4935E-01  0.2414E-01  0.2847E-01  0.9302E-03
      9.500  0.5276E-01  0.5158E-02  0.2041E-01  0.5198E-02  0.2717E-02  0.1801E-01  0.9068E-02  0.9200E-02  0.4180E-03
      9.609  0.4502E-01  0.1384E-01  0.2902E-01  0.1518E-01  0.2782E-02  0.2579E-01  0.1284E-01  0.3250E-02  0.1989E-02
      9.718  0.1558E+00  0.1967E-01  0.5227E-01  0.2192E-01  0.1073E-01  0.5052E-01  0.2119E-01  0.1098E-01  0.6208E-02
      9.826  0.1902E+00  0.1393E-01  0.3844E-01  0.1272E-01  0.1864E-01  0.4806E-01  0.1144E-01  0.2320E-01  0.5252E-02
      9.935  0.8030E-01  0.1012E-01  0.1562E-01  0.6769E-02  0.1126E-01  0.2464E-01  0.2477E-02  0.1505E-01  0.1156E-02
     10.044  0.4405E-01  0.1024E-01  0.1113E-01  0.5154E-02  0.5632E-02  0.1637E-01  0.4950E-03  0.5928E-02  0.1021E-02
     10.152  0.2421E-01  0.7720E-02  0.2300E-01  0.6917E-02  0.5822E-02  0.1184E-01  0.1027E-02  0.4081E-02  0.8482E-03
     10.261  0.3690E-01  0.1456E-01  0.6584E-01  0.2134E-01  0.1677E-01  0.1962E-01  0.3528E-02  0.1024E-01  0.2844E-02
     10.370  0.8154E-01  0.2061E-01  0.4286E-01  0.3710E-01  0.3178E-01  0.1230E-01  0.5142E-02  0.2082E-01  0.8848E-02
     10.478  0.8032E-01  0.1863E-01  0.1618E-01  0.3423E-01  0.3114E-01  0.3956E-02  0.4616E-02  0.1720E-01  0.8603E-02
     10.587  0.3391E-01  0.9035E-02  0.7687E-02  0.1433E-01  0.1207E-01  0.6918E-03  0.1677E-02  0.3829E-02  0.2354E-02
     10.696  0.9829E-01  0.2492E-01  0.2528E-01  0.4477E-01  0.2939E-01  0.6603E-03  0.5206E-02  0.7351E-02  0.5329E-02
     10.805  0.9943E-01  0.2094E-01  0.2484E-01  0.5518E-01  0.2867E-01  0.1249E-02  0.7121E-02  0.1325E-01  0.8200E-02
     10.913  0.3879E-01  0.7652E-02  0.1441E-01  0.3435E-01  0.1597E-01  0.2399E-02  0.4895E-02  0.6230E-02  0.6696E-02
     11.022  0.1129E+00  0.1642E-01  0.4504E-01  0.7129E-01  0.3596E-01  0.1024E-01  0.1318E-01  0.9392E-02  0.1673E-01
     11.131  0.1217E+00  0.1665E-01  0.4420E-01  0.4383E-01  0.2803E-01  0.1648E-01  0.8851E-02  0.1350E-01  0.1042E-01
     11.239  0.1147E+00  0.1969E-01  0.6976E-01  0.3133E-01  0.2560E-01  0.3149E-01  0.1018E-01  0.1316E-01  0.7002E-02
     11.348  0.1814E+00  0.1745E-01  0.7770E-01  0.2579E-01  0.1943E-01  0.2789E-01  0.2886E-01  0.6712E-02  0.7069E-02
     11.457  0.8741E-01  0.7152E-02  0.2285E-01  0.7185E-02  0.4453E-02  0.8456E-02  0.1604E-01  0.4061E-02  0.1410E-02