    1    1    1    1
  0.1723025E+02  0.2899138E-09  0.2899138E-09  0.2899138E-09  0.5000000E-15
   1.0000000000000000E-004
  CAR 
 Au, FCC                                 
   11   60    9

  0.6250000E-01  0.6250000E-01  0.6250000E-01  0.3906250E-02
   1       -4.0163
   2        0.8501
   3        0.9394
   4        0.9394
   5        2.3635
   6        2.3635
   7       21.1001
   8       23.7526
   9       24.8851

  0.1875000E+00  0.6250000E-01  0.6250000E-01  0.1171875E-01
   1       -3.3303
   2        0.6443
   3        1.1404
   4        1.1616
   5        2.1627
   6        2.4768
   7       20.7753
   8       21.7814
   9       24.2972

  0.3125000E+00  0.6250000E-01  0.6250000E-01  0.1171875E-01
   1       -2.0671
   2        0.7582
   3        1.1693
   4        1.2167
   5        2.4063
   6        2.9839
   7       16.0263
   8       21.5454
   9       23.8506

  0.4375000E+00  0.6250000E-01  0.6250000E-01  0.1171875E-01
   1       -1.5748
   2        0.8960
   3        1.0005
   4        2.3841
   5        3.1567
   6        4.0201
   7       11.1172
   8       20.6281
   9       22.5217

 -0.4375000E+00  0.6250000E-01  0.6250000E-01  0.1171875E-01
   1       -1.5678
   2        0.7967
   3        0.9420
   4        2.9760
   5        3.5696
   6        5.2231
   7        8.7318
   8       20.3493
   9       22.5794

 -0.3125000E+00  0.6250000E-01  0.6250000E-01  0.1171875E-01
   1       -1.6338
   2        0.9446
   3        1.0992
   4        1.6788
   5        3.2773
   6        3.3078
   7       12.6756
   8       21.0134
   9       23.1286

 -0.1875000E+00  0.6250000E-01  0.6250000E-01  0.1171875E-01
   1       -2.4739
   2        0.5784
   3        1.2107
   4        1.2611
   5        2.3109
   6        2.6829
   7       17.7114
   8       22.0171
   9       24.1141

 -0.6250000E-01  0.6250000E-01  0.6250000E-01  0.1171875E-01
   1       -3.6634
   2        0.6940
   3        1.0816
   4        1.0873
   5        2.1854
   6        2.4539
   7       21.3904
   8       22.5620
   9       24.4101

  0.1875000E+00  0.1875000E+00  0.6250000E-01  0.1171875E-01
   1       -2.9932
   2        0.3930
   3        1.3517
   4        1.3762
   5        1.9301
   6        2.6240
   7       21.1323
   8       22.1814
   9       23.2233

  0.3125000E+00  0.1875000E+00  0.6250000E-01  0.2343750E-01
   1       -1.8744
   2        0.1234
   3        1.1610
   4        1.7282
   5        2.2450
   6        3.0885
   7       18.0523
   8       20.5407
   9       22.9930

  0.4375000E+00  0.1875000E+00  0.6250000E-01  0.2343750E-01
   1       -1.0922
   2        0.6386
   3        0.8100
   4        1.5864
   5        3.2292
   6        4.3990
   7       13.0052
   8       19.8713
   9       20.9090

 -0.4375000E+00  0.1875000E+00  0.6250000E-01  0.2343750E-01
   1       -1.0435
   2        0.4790
   3        1.3854
   4        1.7856
   5        3.5040
   6        6.9930
   7        8.7843
   8       19.3243
   9       20.1650

 -0.3125000E+00  0.1875000E+00  0.6250000E-01  0.2343750E-01
   1       -0.9970
   2        0.6020
   3        1.2538
   4        1.5124
   5        3.0490
   6        5.2864
   7       11.5448
   8       18.6719
   9       21.2789

 -0.1875000E+00  0.1875000E+00  0.6250000E-01  0.2343750E-01
   1       -1.4485
   2        0.2888
   3        1.0018
   4        1.6798
   5        2.1576
   6        3.6684
   7       16.3127
   8       19.1730
   9       23.0162

 -0.6250000E-01  0.1875000E+00  0.6250000E-01  0.2343750E-01
   1       -2.6995
   2        0.4324
   3        1.2600
   4        1.3746
   5        2.0337
   6        2.7190
   7       19.4346
   8       21.4967
   9       23.8784

  0.3125000E+00  0.3125000E+00  0.6250000E-01  0.1171875E-01
   1       -1.3582
   2       -0.3576
   3        1.5407
   4        2.2891
   5        2.6753
   6        3.1126
   7       18.3966
   8       19.6571
   9       20.6513

  0.4375000E+00  0.3125000E+00  0.6250000E-01  0.2343750E-01
   1       -0.9068
   2       -0.4953
   3        1.5164
   4        2.6644
   5        3.2966
   6        4.5432
   7       14.9845
   8       17.4584
   9       18.3307

 -0.4375000E+00  0.3125000E+00  0.6250000E-01  0.2343750E-01
   1       -0.7179
   2       -0.0444
   3        1.2835
   4        2.3380
   5        3.5811
   6        7.6141
   7       10.6654
   8       15.7367
   9       18.1435

 -0.3125000E+00  0.3125000E+00  0.6250000E-01  0.2343750E-01
   1       -0.3509
   2        0.3133
   3        0.8590
   4        2.0933
   5        3.0970
   6        7.4237
   7       11.6272
   8       14.1666
   9       19.8145

 -0.1875000E+00  0.3125000E+00  0.6250000E-01  0.2343750E-01
   1       -0.5071
   2        0.4230
   3        0.6343
   4        1.8634
   5        2.5876
   6        5.2878
   7       13.5513
   8       16.4312
   9       21.5423

 -0.6250000E-01  0.3125000E+00  0.6250000E-01  0.2343750E-01
   1       -1.5654
   2        0.7969
   3        1.0113
   4        1.3238
   5        2.7072
   6        3.5324
   7       14.4609
   8       20.8783
   9       22.5021

  0.4375000E+00  0.4375000E+00  0.6250000E-01  0.1171875E-01
   1       -1.2365
   2       -0.9292
   3        3.0990
   4        3.2247
   5        3.6280
   6        5.0525
   7       13.8769
   8       16.2402
   9       16.7266

 -0.4375000E+00  0.4375000E+00  0.6250000E-01  0.2343750E-01
   1       -1.1331
   2       -0.8457
   3        2.6828
   4        3.1913
   5        3.8010
   6        7.7261
   7       11.3098
   8       14.6967
   9       16.0836

 -0.3125000E+00  0.4375000E+00  0.6250000E-01  0.2343750E-01
   1       -0.7466
   2       -0.1772
   3        1.5664
   4        2.5841
   5        3.5391
   6        9.3173
   7       10.2200
   8       13.4526
   9       17.7156

 -0.1875000E+00  0.4375000E+00  0.6250000E-01  0.2343750E-01
   1       -0.6450
   2        0.2917
   3        1.3106
   4        1.7540
   5        3.3407
   6        7.7781
   7        9.3320
   8       16.7902
   9       19.9268

 -0.6250000E-01  0.4375000E+00  0.6250000E-01  0.2343750E-01
   1       -1.3727
   2        0.7139
   3        1.1169
   4        2.2163
   5        3.4360
   6        5.2673
   7        9.8038
   8       20.3776
   9       21.3787

 -0.4375000E+00 -0.4375000E+00  0.6250000E-01  0.1171875E-01
   1       -1.3484
   2       -1.0563
   3        3.4273
   4        3.5352
   5        3.8213
   6        6.6920
   7       11.6161
   8       15.4573
   9       16.0287

 -0.3125000E+00 -0.4375000E+00  0.6250000E-01  0.2343750E-01
   1       -1.0183
   2       -0.7239
   3        2.1886
   4        3.0670
   5        3.6028
   6        6.0347
   7       13.1985
   8       15.7324
   9       16.7705

 -0.1875000E+00 -0.4375000E+00  0.6250000E-01  0.2343750E-01
   1       -0.7927
   2        0.2432
   3        0.9640
   4        1.9558
   5        3.5224
   6        5.8114
   7       11.6981
   8       18.2706
   9       19.0440

 -0.3125000E+00 -0.3125000E+00  0.6250000E-01  0.1171875E-01
   1       -1.1307
   2       -0.6873
   3        2.2811
   4        2.8079
   5        3.3755
   6        3.6001
   7       16.4477
   8       17.9080
   9       17.9965

 -0.1875000E+00 -0.3125000E+00  0.6250000E-01  0.2343750E-01
   1       -1.1362
   2       -0.2014
   3        1.0883
   4        2.1710
   5        2.7965
   6        3.6073
   7       16.5764
   8       19.0639
   9       20.7854

 -0.1875000E+00 -0.1875000E+00  0.6250000E-01  0.1171875E-01
   1       -2.1177
   2        0.0206
   3        1.4212
   4        1.7890
   5        2.0611
   6        2.8530
   7       19.9377
   8       21.4977
   9       22.4728

  0.1875000E+00  0.1875000E+00  0.1875000E+00  0.3906250E-02
   1       -3.0314
   2        0.6702
   3        1.1636
   4        1.1636
   5        2.3606
   6        2.3606
   7       19.2513
   8       22.0182
   9       25.6254

  0.3125000E+00  0.1875000E+00  0.1875000E+00  0.1171875E-01
   1       -2.1524
   2        0.4178
   3        1.1968
   4        1.4649
   5        1.9769
   6        3.1013
   7       17.8100
   8       20.4324
   9       24.1430

  0.4375000E+00  0.1875000E+00  0.1875000E+00  0.1171875E-01
   1       -0.9564
   2        0.4154
   3        0.9156
   4        1.6353
   5        2.2233
   6        4.3988
   7       14.8139
   8       17.7797
   9       22.8140

 -0.4375000E+00  0.1875000E+00  0.1875000E+00  0.1171875E-01
   1       -0.8525
   2        0.4861
   3        1.4857
   4        1.5279
   5        3.1188
   6        6.3589
   7       10.3325
   8       17.6166
   9       21.9202

 -0.3125000E+00  0.1875000E+00  0.1875000E+00  0.1171875E-01
   1       -0.9641
   2        0.4403
   3        1.3644
   4        1.5698
   5        3.6158
   6        6.3534
   7        9.9969
   8       18.8091
   9       20.5737

 -0.1875000E+00  0.1875000E+00  0.1875000E+00  0.1171875E-01
   1       -1.1369
   2        0.1362
   3        0.9526
   4        1.7818
   5        3.3787
   6        3.6444
   7       14.7258
   8       20.4455
   9       20.7944

  0.3125000E+00  0.3125000E+00  0.1875000E+00  0.1171875E-01
   1       -1.7631
   2        0.3794
   3        1.0759
   4        1.4662
   5        2.7196
   6        3.0471
   7       16.2142
   8       21.9074
   9       22.2364

  0.4375000E+00  0.3125000E+00  0.1875000E+00  0.2343750E-01
   1       -0.7879
   2        0.1081
   3        0.7017
   4        2.0510
   5        2.6432
   6        4.4224
   7       14.9073
   8       17.7975
   9       21.0318

 -0.4375000E+00  0.3125000E+00  0.1875000E+00  0.2343750E-01
   1       -0.1555
   2        0.1945
   3        0.4657
   4        2.2075
   5        3.0594
   6        6.4866
   7       12.5110
   8       15.2214
   9       19.1756

 -0.3125000E+00  0.3125000E+00  0.1875000E+00  0.2343750E-01
   1       -0.3764
   2        0.0883
   3        0.9593
   4        2.1077
   5        3.4634
   6        8.5211
   7        9.6196
   8       15.9294
   9       17.7744

 -0.1875000E+00  0.3125000E+00  0.1875000E+00  0.2343750E-01
   1       -0.5302
   2       -0.1114
   3        0.7890
   4        2.4852
   5        3.1391
   6        5.5392
   7       13.5979
   8       16.4343
   9       18.6552

  0.4375000E+00  0.4375000E+00  0.1875000E+00  0.1171875E-01
   1       -0.8979
   2       -0.1697
   3        1.2869
   4        2.1799
   5        3.6096
   6        4.9932
   7       13.2807
   8       18.1953
   9       18.9531

 -0.4375000E+00  0.4375000E+00  0.1875000E+00  0.2343750E-01
   1       -0.6321
   2       -0.3341
   3        1.2767
   4        2.7502
   5        3.5300
   6        7.1149
   7       12.3767
   8       15.0607
   9       16.6662

 -0.3125000E+00  0.4375000E+00  0.1875000E+00  0.2343750E-01
   1       -0.3639
   2        0.0912
   3        0.8173
   4        2.3366
   5        3.7909
   6        9.7213
   7       11.2427
   8       12.9442
   9       15.5021

 -0.1875000E+00  0.4375000E+00  0.1875000E+00  0.2343750E-01
   1       -0.1911
   2        0.0837
   3        0.5979
   4        2.3675
   5        3.4967
   6        8.0629
   7       11.7084
   8       14.1476
   9       16.8730

 -0.4375000E+00 -0.4375000E+00  0.1875000E+00  0.1171875E-01
   1       -1.0214
   2       -0.5799
   3        2.2877
   4        2.9278
   5        3.6468
   6        8.5091
   7       10.7270
   8       13.8385
   9       17.3280

 -0.3125000E+00 -0.4375000E+00  0.1875000E+00  0.2343750E-01
   1       -0.7536
   2       -0.4449
   3        1.6988
   4        2.7495
   5        3.7933
   6        8.9651
   7       11.0114
   8       13.8644
   9       15.7619

 -0.3125000E+00 -0.3125000E+00  0.1875000E+00  0.1171875E-01
   1       -0.9424
   2       -0.4385
   3        1.8744
   4        2.6012
   5        3.6920
   6        6.6941
   7       11.9628
   8       15.6278
   9       17.8851

  0.3125000E+00  0.3125000E+00  0.3125000E+00  0.3906250E-02
   1       -1.8938
   2        1.0827
   3        1.0827
   4        1.3520
   5        2.8721
   6        2.8721
   7       14.2716
   8       21.3306
   9       24.9412

  0.4375000E+00  0.3125000E+00  0.3125000E+00  0.1171875E-01
   1       -1.3057
   2        0.8158
   3        1.2648
   4        1.3209
   5        2.7058
   6        4.2771
   7       12.9041
   8       19.7565
   9       22.1589

 -0.4375000E+00  0.3125000E+00  0.3125000E+00  0.1171875E-01
   1       -0.3990
   2        0.4587
   3        0.8345
   4        1.8450
   5        2.7519
   6        6.2420
   7       12.4898
   8       15.1643
   9       22.4322

 -0.3125000E+00  0.3125000E+00  0.3125000E+00  0.1171875E-01
   1       -0.6171
   2        0.1684
   3        1.2556
   4        2.3083
   5        3.2655
   6        8.4663
   7       10.7390
   8       13.5601
   9       19.5668

  0.4375000E+00  0.4375000E+00  0.3125000E+00  0.1171875E-01
   1       -1.3058
   2        0.7163
   3        1.2681
   4        1.5393
   5        3.5441
   6        4.5949
   7       11.2409
   8       20.6759
   9       21.6545

 -0.4375000E+00  0.4375000E+00  0.3125000E+00  0.2343750E-01
   1       -0.6593
   2        0.3045
   3        1.1110
   4        1.8025
   5        3.3521
   6        6.7393
   7       10.3984
   8       17.6313
   9       19.2648

 -0.3125000E+00  0.4375000E+00  0.3125000E+00  0.2343750E-01
   1       -0.3262
   2        0.1275
   3        0.8479
   4        2.2814
   5        3.4967
   6        8.8441
   7       10.9774
   8       13.5077
   9       17.3366

 -0.4375000E+00 -0.4375000E+00  0.3125000E+00  0.1171875E-01
   1       -0.7104
   2        0.2343
   3        1.2748
   4        1.9562
   5        3.4886
   6        8.4045
   7        9.0625
   8       16.1687
   9       19.8900

  0.4375000E+00  0.4375000E+00  0.4375000E+00  0.3906250E-02
   1       -1.6672
   2        0.8893
   3        0.8893
   4        3.4689
   5        3.4689
   6        3.8510
   7        9.6780
   8       20.3910
   9       23.3512

 -0.4375000E+00  0.4375000E+00  0.4375000E+00  0.1171875E-01
   1       -1.2847
   2        0.6403
   3        1.1516
   4        2.2787
   5        3.4377
   6        6.2719
   7        8.7854
   8       19.8043
   9       21.5128
