       N       E                     dE             d eps       ncg     rms          rms(c)
DAV:   1     0.438435054774E+02    0.43844E+02   -0.46891E+03  1280   0.824E+02

DAV:   2    -0.285624370145E+01   -0.46700E+02   -0.42967E+02  1100   0.208E+02

DAV:   3    -0.343435438558E+01   -0.57811E+00   -0.57780E+00  1324   0.282E+01

DAV:   4    -0.343582871058E+01   -0.14743E-02   -0.14743E-02  1221   0.132E+00

DAV:   5    -0.343584029154E+01   -0.11581E-04   -0.11581E-04  1259   0.113E-01    0.290E+00
RMM:   6    -0.320194618786E+01    0.23389E+00   -0.41943E-01  1084   0.891E+00    0.802E-01
RMM:   7    -0.318217078591E+01    0.19775E-01   -0.32695E-02  1134   0.205E+00    0.291E-01
RMM:   8    -0.317855961134E+01    0.36112E-02   -0.13115E-03  1157   0.654E-01    0.136E-02
RMM:   9    -0.317857311927E+01   -0.13508E-04   -0.16471E-05   689   0.594E-02

   1 F= -.31785731E+01 E0= -.31780922E+01  d E =-.961871E-03

