PROCAR lm decomposed
# of k-points:   60         # of bands:   9         # of ions:   1

 k-point    1 :    0.06250000 0.06250000 0.06250000     weight = 0.00390625

band   1 # energy   -4.01625053 # occ.  2.00000000

ion      s     py     pz     px    dxy    dyz    dz2    dxz    dx2    tot
  1  0.601  0.002  0.002  0.002  0.000  0.000  0.000  0.000  0.000  0.607

band   2 # energy    0.85013150 # occ.  2.00000000

ion      s     py     pz     px    dxy    dyz    dz2    dxz    dx2    tot
  1  0.000  0.000  0.000  0.000  0.308  0.308  0.000  0.308  0.000  0.925

band   3 # energy    0.93943724 # occ.  2.00000000

ion      s     py     pz     px    dxy    dyz    dz2    dxz    dx2    tot
  1  0.000  0.000  0.000  0.000  0.461  0.000  0.001  0.467  0.000  0.929

band   4 # energy    0.93943750 # occ.  2.00000000

ion      s     py     pz     px    dxy    dyz    dz2    dxz    dx2    tot
  1  0.000  0.000  0.000  0.000  0.158  0.618  0.000  0.152  0.001  0.929

band   5 # energy    2.36345165 # occ.  2.00000000

ion      s     py     pz     px    dxy    dyz    dz2    dxz    dx2    tot
  1  0.000  0.000  0.000  0.000  0.000  0.001  0.232  0.000  0.727  0.961

band   6 # energy    2.36345181 # occ.  2.00000000

ion      s     py     pz     px    dxy    dyz    dz2    dxz    dx2    tot
  1  0.000  0.000  0.000  0.000  0.001  0.000  0.727  0.001  0.232  0.961

band   7 # energy   21.10010759 # occ.  0.00000000

ion      s     py     pz     px    dxy    dyz    dz2    dxz    dx2    tot
  1  0.000  0.000  0.000  0.000  0.007  0.007  0.000  0.007  0.000  0.022

band   8 # energy   23.75256617 # occ.  0.00000000

ion      s     py     pz     px    dxy    dyz    dz2    dxz    dx2    tot
  1  0.021  0.065  0.065  0.066  0.008  0.008  0.000  0.008  0.000  0.240

band   9 # energy   24.88505996 # occ.  0.00000000

ion      s     py     pz     px    dxy    dyz    dz2    dxz    dx2    tot
  1  0.000  0.128  0.072  0.016  0.003  0.001  0.004  0.006  0.004  0.233


 k-point    2 :    0.18750000 0.06250000 0.06250000     weight = 0.01171875

band   1 # energy   -3.33025132 # occ.  2.00000000

ion      s     py     pz     px    dxy    dyz    dz2    dxz    dx2    tot
  1  0.567  0.016  0.016  0.002  0.001  0.007  0.000  0.001  0.001  0.609

band   2 # energy    0.64429876 # occ.  2.00000000

ion      s     py     pz     px    dxy    dyz    dz2    dxz    dx2    tot
  1  0.001  0.001  0.001  0.006  0.437  0.026  0.000  0.437  0.000  0.908

band   3 # energy    1.14039407 # occ.  2.00000000

ion      s     py     pz     px    dxy    dyz    dz2    dxz    dx2    tot
  1  0.000  0.000  0.000  0.000  0.457  0.000  0.012  0.457  0.004  0.931

band   4 # energy    1.16164940 # occ.  2.00000000

ion      s     py     pz     px    dxy    dyz    dz2    dxz    dx2    tot
  1  0.001  0.003  0.003  0.000  0.013  0.822  0.018  0.013  0.054  0.927

band   5 # energy    2.16265108 # occ.  2.00000000

ion      s     py     pz     px    dxy    dyz    dz2    dxz    dx2    tot
  1  0.000  0.000  0.000  0.000  0.008  0.000  0.700  0.008  0.233  0.950

band   6 # energy    2.47678790 # occ.  2.00000000

ion      s     py     pz     px    dxy    dyz    dz2    dxz    dx2    tot
  1  0.001  0.000  0.000  0.000  0.001  0.070  0.221  0.001  0.663  0.959

band   7 # energy   20.77530192 # occ.  0.00000000

ion      s     py     pz     px    dxy    dyz    dz2    dxz    dx2    tot
  1  0.051  0.071  0.071  0.055  0.045  0.052  0.001  0.045  0.003  0.394

band   8 # energy   21.78139098 # occ.  0.00000000

ion      s     py     pz     px    dxy    dyz    dz2    dxz    dx2    tot
  1  0.017  0.022  0.022  0.008  0.035  0.006  0.001  0.035  0.003  0.148

band   9 # energy   24.29717777 # occ.  0.00000000

ion      s     py     pz     px    dxy    dyz    dz2    dxz    dx2    tot
  1  0.001  0.012  0.012  0.258  0.024  0.019  0.002  0.024  0.005  0.358


 k-point    3 :    0.31250000 0.06250000 0.06250000     weight = 0.01171875

band   1 # energy   -2.06708346 # occ.  2.00000000

ion      s     py     pz     px    dxy    dyz    dz2    dxz    dx2    tot
  1  0.430  0.025  0.025  0.005  0.050  0.075  0.000  0.050  0.001  0.661

band   2 # energy    0.75818402 # occ.  2.00000000

ion      s     py     pz     px    dxy    dyz    dz2    dxz    dx2    tot
  1  0.047  0.017  0.017  0.027  0.364  0.005  0.001  0.364  0.002  0.843

band   3 # energy    1.16931960 # occ.  2.00000000

ion      s     py     pz     px    dxy    dyz    dz2    dxz    dx2    tot
  1  0.007  0.007  0.007  0.001  0.007  0.496  0.095  0.007  0.284  0.910

band   4 # energy    1.21669634 # occ.  2.00000000

ion      s     py     pz     px    dxy    dyz    dz2    dxz    dx2    tot
  1  0.000  0.000  0.000  0.000  0.284  0.000  0.270  0.284  0.090  0.928

band   5 # energy    2.40633402 # occ.  2.00000000

ion      s     py     pz     px    dxy    dyz    dz2    dxz    dx2    tot
  1  0.000  0.001  0.001  0.000  0.185  0.000  0.434  0.185  0.145  0.949

band   6 # energy    2.98387832 # occ.  2.00000000

ion      s     py     pz     px    dxy    dyz    dz2    dxz    dx2    tot
  1  0.012  0.004  0.004  0.000  0.014  0.342  0.141  0.014  0.423  0.955

band   7 # energy   16.02633005 # occ.  0.00000000

ion      s     py     pz     px    dxy    dyz    dz2    dxz    dx2    tot
  1  0.152  0.092  0.092  0.095  0.061  0.065  0.001  0.061  0.003  0.623

band   8 # energy   21.54544962 # occ.  0.00000000

ion      s     py     pz     px    dxy    dyz    dz2    dxz    dx2    tot
  1  0.003  0.001  0.001  0.064  0.063  0.000  0.003  0.063  0.010  0.209

band   9 # energy   23.85061233 # occ.  0.00000000

ion      s     py     pz     px    dxy    dyz    dz2    dxz    dx2    tot
  1  0.011  0.090  0.090  0.208  0.022  0.067  0.001  0.022  0.002  0.513


 k-point    4 :    0.43750000 0.06250000 0.06250000     weight = 0.01171875

band   1 # energy   -1.57479391 # occ.  2.00000000

ion      s     py     pz     px    dxy    dyz    dz2    dxz    dx2    tot
  1  0.219  0.007  0.007  0.000  0.177  0.188  0.000  0.177  0.000  0.774

band   2 # energy    0.89595728 # occ.  2.00000000

ion      s     py     pz     px    dxy    dyz    dz2    dxz    dx2    tot
  1  0.000  0.000  0.000  0.001  0.065  0.281  0.126  0.065  0.377  0.916

band   3 # energy    1.00054889 # occ.  2.00000000

ion      s     py     pz     px    dxy    dyz    dz2    dxz    dx2    tot
  1  0.000  0.000  0.000  0.000  0.192  0.000  0.402  0.192  0.134  0.920

band   4 # energy    2.38414766 # occ.  2.00000000

ion      s     py     pz     px    dxy    dyz    dz2    dxz    dx2    tot
  1  0.077  0.058  0.058  0.060  0.159  0.028  0.039  0.159  0.117  0.755

band   5 # energy    3.15665890 # occ.  2.00000000

ion      s     py     pz     px    dxy    dyz    dz2    dxz    dx2    tot
  1  0.000  0.001  0.001  0.000  0.283  0.000  0.298  0.283  0.099  0.966

band   6 # energy    4.02011513 # occ.  2.00000000

ion      s     py     pz     px    dxy    dyz    dz2    dxz    dx2    tot
  1  0.070  0.039  0.039  0.023  0.003  0.411  0.070  0.003  0.209  0.867

band   7 # energy   11.11718723 # occ.  0.00000000

ion      s     py     pz     px    dxy    dyz    dz2    dxz    dx2    tot
  1  0.293  0.062  0.062  0.077  0.089  0.069  0.001  0.089  0.003  0.743

band   8 # energy   20.62811625 # occ.  0.00000000

ion      s     py     pz     px    dxy    dyz    dz2    dxz    dx2    tot
  1  0.001  0.001  0.001  0.039  0.019  0.002  0.004  0.019  0.013  0.098

band   9 # energy   22.52174408 # occ.  0.00000000

ion      s     py     pz     px    dxy    dyz    dz2    dxz    dx2    tot
  1  0.014  0.089  0.090  0.264  0.025  0.007  0.001  0.025  0.004  0.520


 k-point    5 :   -0.43750000 0.06250000 0.06250000     weight = 0.01171875

band   1 # energy   -1.56778540 # occ.  2.00000000

ion      s     py     pz     px    dxy    dyz    dz2    dxz    dx2    tot
  1  0.178  0.000  0.000  0.004  0.198  0.218  0.000  0.198  0.000  0.796

band   2 # energy    0.79668971 # occ.  2.00000000

ion      s     py     pz     px    dxy    dyz    dz2    dxz    dx2    tot
  1  0.000  0.001  0.001  0.000  0.066  0.223  0.139  0.066  0.417  0.912

band   3 # energy    0.94201930 # occ.  2.00000000

ion      s     py     pz     px    dxy    dyz    dz2    dxz    dx2    tot
  1  0.000  0.000  0.000  0.000  0.187  0.000  0.408  0.187  0.136  0.919

band   4 # energy    2.97599808 # occ.  2.00000000

ion      s     py     pz     px    dxy    dyz    dz2    dxz    dx2    tot
  1  0.003  0.035  0.035  0.032  0.065  0.355  0.068  0.065  0.205  0.865

band   5 # energy    3.56955812 # occ.  2.00000000

ion      s     py     pz     px    dxy    dyz    dz2    dxz    dx2    tot
  1  0.000  0.000  0.000  0.000  0.293  0.000  0.295  0.293  0.098  0.979

band   6 # energy    5.22314583 # occ.  1.99960283

ion      s     py     pz     px    dxy    dyz    dz2    dxz    dx2    tot
  1  0.018  0.120  0.120  0.135  0.048  0.041  0.026  0.048  0.079  0.634

band   7 # energy    8.73179500 # occ.  0.00000000

ion      s     py     pz     px    dxy    dyz    dz2    dxz    dx2    tot
  1  0.463  0.011  0.011  0.004  0.116  0.134  0.000  0.116  0.000  0.855

band   8 # energy   20.34929438 # occ.  0.00000000

ion      s     py     pz     px    dxy    dyz    dz2    dxz    dx2    tot
  1  0.000  0.003  0.003  0.018  0.001  0.009  0.004  0.001  0.013  0.054

band   9 # energy   22.57944809 # occ.  0.00000000

ion      s     py     pz     px    dxy    dyz    dz2    dxz    dx2    tot
  1  0.016  0.088  0.072  0.295  0.010  0.011  0.005  0.009  0.013  0.519


 k-point    6 :   -0.31250000 0.06250000 0.06250000     weight = 0.01171875

band   1 # energy   -1.63377767 # occ.  2.00000000

ion      s     py     pz     px    dxy    dyz    dz2    dxz    dx2    tot
  1  0.269  0.003  0.003  0.018  0.145  0.160  0.001  0.145  0.002  0.747

band   2 # energy    0.94456075 # occ.  2.00000000

ion      s     py     pz     px    dxy    dyz    dz2    dxz    dx2    tot
  1  0.001  0.000  0.000  0.000  0.084  0.242  0.127  0.084  0.380  0.918

band   3 # energy    1.09922650 # occ.  2.00000000

ion      s     py     pz     px    dxy    dyz    dz2    dxz    dx2    tot
  1  0.000  0.001  0.001  0.000  0.229  0.000  0.347  0.229  0.116  0.923

band   4 # energy    1.67883443 # occ.  2.00000000

ion      s     py     pz     px    dxy    dyz    dz2    dxz    dx2    tot
  1  0.099  0.050  0.050  0.048  0.017  0.376  0.026  0.017  0.077  0.759

band   5 # energy    3.27728801 # occ.  2.00000000

ion      s     py     pz     px    dxy    dyz    dz2    dxz    dx2    tot
  1  0.000  0.001  0.001  0.000  0.244  0.000  0.361  0.244  0.120  0.971

band   6 # energy    3.30782129 # occ.  2.00000000

ion      s     py     pz     px    dxy    dyz    dz2    dxz    dx2    tot
  1  0.050  0.013  0.013  0.030  0.187  0.104  0.080  0.187  0.239  0.902

band   7 # energy   12.67559557 # occ.  0.00000000

ion      s     py     pz     px    dxy    dyz    dz2    dxz    dx2    tot
  1  0.237  0.087  0.087  0.073  0.069  0.081  0.001  0.069  0.002  0.705

band   8 # energy   21.01336933 # occ.  0.00000000

ion      s     py     pz     px    dxy    dyz    dz2    dxz    dx2    tot
  1  0.000  0.008  0.008  0.007  0.003  0.034  0.004  0.003  0.012  0.077

band   9 # energy   23.12862469 # occ.  0.00000000

ion      s     py     pz     px    dxy    dyz    dz2    dxz    dx2    tot
  1  0.000  0.236  0.234  0.000  0.048  0.000  0.010  0.048  0.003  0.580


 k-point    7 :   -0.18750000 0.06250000 0.06250000     weight = 0.01171875

band   1 # energy   -2.47390984 # occ.  2.00000000

ion      s     py     pz     px    dxy    dyz    dz2    dxz    dx2    tot
  1  0.496  0.010  0.010  0.035  0.028  0.019  0.001  0.028  0.003  0.630

band   2 # energy    0.57844960 # occ.  2.00000000

ion      s     py     pz     px    dxy    dyz    dz2    dxz    dx2    tot
  1  0.021  0.012  0.012  0.008  0.094  0.633  0.000  0.094  0.000  0.874

band   3 # energy    1.21072160 # occ.  2.00000000

ion      s     py     pz     px    dxy    dyz    dz2    dxz    dx2    tot
  1  0.001  0.001  0.001  0.002  0.222  0.169  0.076  0.222  0.229  0.923

band   4 # energy    1.26109432 # occ.  2.00000000

ion      s     py     pz     px    dxy    dyz    dz2    dxz    dx2    tot
  1  0.000  0.002  0.002  0.000  0.355  0.000  0.162  0.355  0.054  0.929

band   5 # energy    2.31085549 # occ.  2.00000000

ion      s     py     pz     px    dxy    dyz    dz2    dxz    dx2    tot
  1  0.008  0.001  0.001  0.005  0.107  0.084  0.157  0.107  0.472  0.942

band   6 # energy    2.68291896 # occ.  2.00000000

ion      s     py     pz     px    dxy    dyz    dz2    dxz    dx2    tot
  1  0.000  0.001  0.001  0.000  0.111  0.000  0.553  0.111  0.184  0.960

band   7 # energy   17.71139312 # occ.  0.00000000

ion      s     py     pz     px    dxy    dyz    dz2    dxz    dx2    tot
  1  0.114  0.095  0.095  0.083  0.061  0.056  0.001  0.061  0.002  0.569

band   8 # energy   22.01708176 # occ.  0.00000000

ion      s     py     pz     px    dxy    dyz    dz2    dxz    dx2    tot
  1  0.003  0.005  0.005  0.000  0.013  0.082  0.002  0.013  0.007  0.131

band   9 # energy   24.11405820 # occ.  0.00000000

ion      s     py     pz     px    dxy    dyz    dz2    dxz    dx2    tot
  1  0.000  0.200  0.201  0.000  0.084  0.000  0.014  0.085  0.005  0.589


 k-point    8 :   -0.06250000 0.06250000 0.06250000     weight = 0.01171875

band   1 # energy   -3.66338037 # occ.  2.00000000

ion      s     py     pz     px    dxy    dyz    dz2    dxz    dx2    tot
  1  0.585  0.002  0.002  0.017  0.001  0.000  0.000  0.001  0.001  0.607

band   2 # energy    0.69398557 # occ.  2.00000000

ion      s     py     pz     px    dxy    dyz    dz2    dxz    dx2    tot
  1  0.000  0.001  0.001  0.000  0.048  0.819  0.000  0.048  0.000  0.917

band   3 # energy    1.08156697 # occ.  2.00000000

ion      s     py     pz     px    dxy    dyz    dz2    dxz    dx2    tot
  1  0.000  0.001  0.001  0.001  0.410  0.099  0.002  0.410  0.005  0.929

band   4 # energy    1.08727139 # occ.  2.00000000

ion      s     py     pz     px    dxy    dyz    dz2    dxz    dx2    tot
  1  0.000  0.001  0.001  0.000  0.459  0.000  0.007  0.459  0.002  0.929

band   5 # energy    2.18541541 # occ.  2.00000000

ion      s     py     pz     px    dxy    dyz    dz2    dxz    dx2    tot
  1  0.001  0.000  0.000  0.000  0.003  0.001  0.236  0.003  0.708  0.952

band   6 # energy    2.45391811 # occ.  2.00000000

ion      s     py     pz     px    dxy    dyz    dz2    dxz    dx2    tot
  1  0.000  0.000  0.000  0.000  0.005  0.000  0.714  0.005  0.238  0.962

band   7 # energy   21.39037722 # occ.  0.00000000

ion      s     py     pz     px    dxy    dyz    dz2    dxz    dx2    tot
  1  0.002  0.008  0.008  0.003  0.013  0.063  0.000  0.013  0.000  0.109

band   8 # energy   22.56204604 # occ.  0.00000000

ion      s     py     pz     px    dxy    dyz    dz2    dxz    dx2    tot
  1  0.042  0.047  0.047  0.080  0.016  0.000  0.003  0.016  0.008  0.260

band   9 # energy   24.41008322 # occ.  0.00000000

ion      s     py     pz     px    dxy    dyz    dz2    dxz    dx2    tot
  1  0.000  0.152  0.127  0.000  0.043  0.000  0.003  0.038  0.002  0.365


 k-point    9 :    0.18750000 0.18750000 0.06250000     weight = 0.01171875

band   1 # energy   -2.99321226 # occ.  2.00000000

ion      s     py     pz     px    dxy    dyz    dz2    dxz    dx2    tot
  1  0.548  0.002  0.044  0.002  0.000  0.002  0.010  0.002  0.000  0.610

band   2 # energy    0.39298205 # occ.  2.00000000

ion      s     py     pz     px    dxy    dyz    dz2    dxz    dx2    tot
  1  0.000  0.001  0.000  0.001  0.873  0.015  0.000  0.015  0.000  0.904

band   3 # energy    1.35171909 # occ.  2.00000000

ion      s     py     pz     px    dxy    dyz    dz2    dxz    dx2    tot
  1  0.000  0.003  0.000  0.003  0.030  0.400  0.093  0.400  0.000  0.929

band   4 # energy    1.37616902 # occ.  2.00000000

ion      s     py     pz     px    dxy    dyz    dz2    dxz    dx2    tot
  1  0.000  0.003  0.000  0.003  0.000  0.448  0.000  0.448  0.028  0.931

band   5 # energy    1.93011393 # occ.  2.00000000

ion      s     py     pz     px    dxy    dyz    dz2    dxz    dx2    tot
  1  0.008  0.000  0.003  0.000  0.003  0.044  0.831  0.044  0.000  0.935

band   6 # energy    2.62397356 # occ.  2.00000000

ion      s     py     pz     px    dxy    dyz    dz2    dxz    dx2    tot
  1  0.000  0.000  0.000  0.000  0.000  0.014  0.000  0.014  0.935  0.964

band   7 # energy   21.13227102 # occ.  0.00000000

ion      s     py     pz     px    dxy    dyz    dz2    dxz    dx2    tot
  1  0.050  0.080  0.051  0.080  0.046  0.045  0.018  0.045  0.000  0.414

band   8 # energy   22.18138388 # occ.  0.00000000

ion      s     py     pz     px    dxy    dyz    dz2    dxz    dx2    tot
  1  0.015  0.001  0.016  0.001  0.113  0.000  0.016  0.000  0.000  0.161

band   9 # energy   23.22331396 # occ.  0.00000000

ion      s     py     pz     px    dxy    dyz    dz2    dxz    dx2    tot
  1  0.000  0.168  0.000  0.194  0.000  0.074  0.000  0.083  0.003  0.523


 k-point   10 :    0.31250000 0.18750000 0.06250000     weight = 0.02343750

band   1 # energy   -1.87443105 # occ.  2.00000000

ion      s     py     pz     px    dxy    dyz    dz2    dxz    dx2    tot
  1  0.452  0.011  0.068  0.001  0.007  0.039  0.049  0.006  0.000  0.632

band   2 # energy    0.12344253 # occ.  2.00000000

ion      s     py     pz     px    dxy    dyz    dz2    dxz    dx2    tot
  1  0.004  0.002  0.002  0.009  0.804  0.002  0.002  0.058  0.000  0.884

band   3 # energy    1.16102480 # occ.  2.00000000

ion      s     py     pz     px    dxy    dyz    dz2    dxz    dx2    tot
  1  0.004  0.005  0.001  0.000  0.012  0.334  0.504  0.017  0.035  0.912

band   4 # energy    1.72822540 # occ.  2.00000000

ion      s     py     pz     px    dxy    dyz    dz2    dxz    dx2    tot
  1  0.002  0.002  0.001  0.005  0.042  0.107  0.035  0.602  0.138  0.933

band   5 # energy    2.24501284 # occ.  2.00000000

ion      s     py     pz     px    dxy    dyz    dz2    dxz    dx2    tot
  1  0.024  0.004  0.013  0.003  0.026  0.147  0.276  0.229  0.202  0.924

band   6 # energy    3.08851681 # occ.  2.00000000

ion      s     py     pz     px    dxy    dyz    dz2    dxz    dx2    tot
  1  0.014  0.004  0.005  0.000  0.000  0.296  0.049  0.005  0.584  0.958

band   7 # energy   18.05233859 # occ.  0.00000000

ion      s     py     pz     px    dxy    dyz    dz2    dxz    dx2    tot
  1  0.123  0.150  0.080  0.070  0.031  0.072  0.012  0.034  0.005  0.576

band   8 # energy   20.54073830 # occ.  0.00000000

ion      s     py     pz     px    dxy    dyz    dz2    dxz    dx2    tot
  1  0.012  0.048  0.008  0.268  0.099  0.020  0.006  0.113  0.005  0.580

band   9 # energy   22.99303716 # occ.  0.00000000

ion      s     py     pz     px    dxy    dyz    dz2    dxz    dx2    tot
  1  0.011  0.044  0.075  0.019  0.016  0.010  0.144  0.004  0.000  0.325


 k-point   11 :    0.43750000 0.18750000 0.06250000     weight = 0.02343750

band   1 # energy   -1.09218244 # occ.  2.00000000

ion      s     py     pz     px    dxy    dyz    dz2    dxz    dx2    tot
  1  0.214  0.004  0.037  0.000  0.229  0.137  0.049  0.090  0.000  0.760

band   2 # energy    0.63858679 # occ.  2.00000000

ion      s     py     pz     px    dxy    dyz    dz2    dxz    dx2    tot
  1  0.014  0.024  0.008  0.017  0.090  0.057  0.569  0.045  0.018  0.842

band   3 # energy    0.81000925 # occ.  2.00000000

ion      s     py     pz     px    dxy    dyz    dz2    dxz    dx2    tot
  1  0.055  0.004  0.025  0.014  0.462  0.214  0.056  0.000  0.030  0.861

band   4 # energy    1.58640959 # occ.  2.00000000

ion      s     py     pz     px    dxy    dyz    dz2    dxz    dx2    tot
  1  0.005  0.004  0.005  0.001  0.048  0.075  0.033  0.313  0.438  0.923

band   5 # energy    3.22920647 # occ.  2.00000000

ion      s     py     pz     px    dxy    dyz    dz2    dxz    dx2    tot
  1  0.008  0.001  0.009  0.005  0.029  0.044  0.057  0.439  0.363  0.954

band   6 # energy    4.39903882 # occ.  2.00000000

ion      s     py     pz     px    dxy    dyz    dz2    dxz    dx2    tot
  1  0.111  0.021  0.054  0.010  0.010  0.406  0.142  0.026  0.097  0.877

band   7 # energy   13.00523528 # occ.  0.00000000

ion      s     py     pz     px    dxy    dyz    dz2    dxz    dx2    tot
  1  0.227  0.100  0.071  0.105  0.074  0.042  0.008  0.052  0.005  0.684

band   8 # energy   19.87129945 # occ.  0.00000000

ion      s     py     pz     px    dxy    dyz    dz2    dxz    dx2    tot
  1  0.021  0.083  0.018  0.276  0.067  0.015  0.007  0.064  0.030  0.581

band   9 # energy   20.90904320 # occ.  0.00000000

ion      s     py     pz     px    dxy    dyz    dz2    dxz    dx2    tot
  1  0.029  0.001  0.167  0.017  0.000  0.010  0.159  0.007  0.000  0.390


 k-point   12 :   -0.43750000 0.18750000 0.06250000     weight = 0.02343750

band   1 # energy   -1.04350435 # occ.  2.00000000

ion      s     py     pz     px    dxy    dyz    dz2    dxz    dx2    tot
  1  0.137  0.000  0.014  0.007  0.301  0.200  0.009  0.137  0.001  0.807

band   2 # energy    0.47895830 # occ.  2.00000000

ion      s     py     pz     px    dxy    dyz    dz2    dxz    dx2    tot
  1  0.000  0.009  0.000  0.001  0.092  0.139  0.557  0.015  0.066  0.881

band   3 # energy    1.38543400 # occ.  2.00000000

ion      s     py     pz     px    dxy    dyz    dz2    dxz    dx2    tot
  1  0.000  0.000  0.000  0.006  0.001  0.085  0.081  0.242  0.506  0.921

band   4 # energy    1.78561398 # occ.  2.00000000

ion      s     py     pz     px    dxy    dyz    dz2    dxz    dx2    tot
  1  0.005  0.037  0.043  0.034  0.357  0.173  0.117  0.030  0.034  0.831

band   5 # energy    3.50400673 # occ.  2.00000000

ion      s     py     pz     px    dxy    dyz    dz2    dxz    dx2    tot
  1  0.001  0.000  0.000  0.000  0.035  0.173  0.030  0.427  0.310  0.975

band   6 # energy    6.99300152 # occ.  0.00000000

ion      s     py     pz     px    dxy    dyz    dz2    dxz    dx2    tot
  1  0.051  0.090  0.144  0.092  0.027  0.129  0.123  0.029  0.014  0.699

band   7 # energy    8.78428494 # occ.  0.00000000

ion      s     py     pz     px    dxy    dyz    dz2    dxz    dx2    tot
  1  0.444  0.021  0.004  0.040  0.143  0.066  0.003  0.088  0.004  0.813

band   8 # energy   19.32431100 # occ.  0.00000000

ion      s     py     pz     px    dxy    dyz    dz2    dxz    dx2    tot
  1  0.046  0.021  0.250  0.055  0.001  0.040  0.104  0.031  0.002  0.548

band   9 # energy   20.16495794 # occ.  0.00000000

ion      s     py     pz     px    dxy    dyz    dz2    dxz    dx2    tot
  1  0.017  0.060  0.007  0.229  0.052  0.003  0.028  0.015  0.064  0.474


 k-point   13 :   -0.31250000 0.18750000 0.06250000     weight = 0.02343750

band   1 # energy   -0.99697757 # occ.  2.00000000

ion      s     py     pz     px    dxy    dyz    dz2    dxz    dx2    tot
  1  0.176  0.007  0.005  0.022  0.239  0.206  0.000  0.124  0.006  0.785

band   2 # energy    0.60196704 # occ.  2.00000000

ion      s     py     pz     px    dxy    dyz    dz2    dxz    dx2    tot
  1  0.000  0.005  0.001  0.000  0.219  0.113  0.459  0.006  0.088  0.892

band   3 # energy    1.25376940 # occ.  2.00000000

ion      s     py     pz     px    dxy    dyz    dz2    dxz    dx2    tot
  1  0.029  0.028  0.035  0.019  0.080  0.145  0.027  0.182  0.290  0.836

band   4 # energy    1.51238795 # occ.  2.00000000

ion      s     py     pz     px    dxy    dyz    dz2    dxz    dx2    tot
  1  0.018  0.012  0.005  0.025  0.002  0.263  0.193  0.109  0.257  0.884

band   5 # energy    3.04895686 # occ.  2.00000000

ion      s     py     pz     px    dxy    dyz    dz2    dxz    dx2    tot
  1  0.001  0.000  0.002  0.005  0.024  0.133  0.053  0.465  0.273  0.957

band   6 # energy    5.28635487 # occ.  1.99190417

ion      s     py     pz     px    dxy    dyz    dz2    dxz    dx2    tot
  1  0.153  0.037  0.017  0.061  0.376  0.002  0.182  0.007  0.010  0.844

band   7 # energy   11.54481258 # occ.  0.00000000

ion      s     py     pz     px    dxy    dyz    dz2    dxz    dx2    tot
  1  0.262  0.074  0.105  0.061  0.031  0.086  0.029  0.067  0.000  0.715

band   8 # energy   18.67185724 # occ.  0.00000000

ion      s     py     pz     px    dxy    dyz    dz2    dxz    dx2    tot
  1  0.039  0.049  0.274  0.035  0.005  0.079  0.053  0.065  0.000  0.598

band   9 # energy   21.27890875 # occ.  0.00000000

ion      s     py     pz     px    dxy    dyz    dz2    dxz    dx2    tot
  1  0.021  0.001  0.015  0.158  0.027  0.000  0.036  0.003  0.066  0.327


 k-point   14 :   -0.18750000 0.18750000 0.06250000     weight = 0.02343750

band   1 # energy   -1.44847671 # occ.  2.00000000

ion      s     py     pz     px    dxy    dyz    dz2    dxz    dx2    tot
  1  0.400  0.026  0.000  0.057  0.120  0.020  0.010  0.014  0.012  0.658

band   2 # energy    0.28878916 # occ.  2.00000000

ion      s     py     pz     px    dxy    dyz    dz2    dxz    dx2    tot
  1  0.012  0.003  0.023  0.004  0.002  0.637  0.000  0.187  0.001  0.870

band   3 # energy    1.00177084 # occ.  2.00000000

ion      s     py     pz     px    dxy    dyz    dz2    dxz    dx2    tot
  1  0.001  0.010  0.000  0.002  0.323  0.004  0.422  0.002  0.135  0.899

band   4 # energy    1.67980841 # occ.  2.00000000

ion      s     py     pz     px    dxy    dyz    dz2    dxz    dx2    tot
  1  0.004  0.001  0.001  0.004  0.034  0.119  0.053  0.360  0.354  0.930

band   5 # energy    2.15759602 # occ.  2.00000000

ion      s     py     pz     px    dxy    dyz    dz2    dxz    dx2    tot
  1  0.007  0.001  0.002  0.007  0.012  0.109  0.031  0.343  0.423  0.934

band   6 # energy    3.66838492 # occ.  2.00000000

ion      s     py     pz     px    dxy    dyz    dz2    dxz    dx2    tot
  1  0.050  0.010  0.000  0.015  0.440  0.001  0.425  0.000  0.000  0.942

band   7 # energy   16.31265869 # occ.  0.00000000

ion      s     py     pz     px    dxy    dyz    dz2    dxz    dx2    tot
  1  0.172  0.131  0.058  0.100  0.063  0.030  0.026  0.029  0.000  0.610

band   8 # energy   19.17304281 # occ.  0.00000000

ion      s     py     pz     px    dxy    dyz    dz2    dxz    dx2    tot
  1  0.017  0.027  0.298  0.015  0.011  0.129  0.012  0.124  0.000  0.633

band   9 # energy   23.01616157 # occ.  0.00000000

ion      s     py     pz     px    dxy    dyz    dz2    dxz    dx2    tot
  1  0.022  0.019  0.010  0.113  0.000  0.001  0.043  0.001  0.055  0.264


 k-point   15 :   -0.06250000 0.18750000 0.06250000     weight = 0.02343750

band   1 # energy   -2.69953939 # occ.  2.00000000

ion      s     py     pz     px    dxy    dyz    dz2    dxz    dx2    tot
  1  0.528  0.013  0.001  0.041  0.020  0.002  0.003  0.003  0.004  0.615

band   2 # energy    0.43237159 # occ.  2.00000000

ion      s     py     pz     px    dxy    dyz    dz2    dxz    dx2    tot
  1  0.002  0.001  0.009  0.001  0.008  0.724  0.000  0.152  0.000  0.896

band   3 # energy    1.26004255 # occ.  2.00000000

ion      s     py     pz     px    dxy    dyz    dz2    dxz    dx2    tot
  1  0.001  0.006  0.000  0.002  0.632  0.021  0.200  0.009  0.051  0.922

band   4 # energy    1.37463529 # occ.  2.00000000

ion      s     py     pz     px    dxy    dyz    dz2    dxz    dx2    tot
  1  0.000  0.000  0.003  0.000  0.032  0.139  0.009  0.697  0.052  0.932

band   5 # energy    2.03367105 # occ.  2.00000000

ion      s     py     pz     px    dxy    dyz    dz2    dxz    dx2    tot
  1  0.006  0.000  0.000  0.003  0.062  0.018  0.011  0.051  0.787  0.938

band   6 # energy    2.71899382 # occ.  2.00000000

ion      s     py     pz     px    dxy    dyz    dz2    dxz    dx2    tot
  1  0.005  0.002  0.000  0.001  0.170  0.000  0.731  0.005  0.046  0.960

band   7 # energy   19.43460566 # occ.  0.00000000

ion      s     py     pz     px    dxy    dyz    dz2    dxz    dx2    tot
  1  0.091  0.113  0.058  0.081  0.070  0.033  0.011  0.034  0.003  0.492

band   8 # energy   21.49665180 # occ.  0.00000000

ion      s     py     pz     px    dxy    dyz    dz2    dxz    dx2    tot
  1  0.009  0.017  0.124  0.009  0.007  0.119  0.008  0.087  0.001  0.383

band   9 # energy   23.87843974 # occ.  0.00000000

ion      s     py     pz     px    dxy    dyz    dz2    dxz    dx2    tot
  1  0.001  0.047  0.182  0.004  0.031  0.006  0.001  0.031  0.004  0.307


 k-point   16 :    0.31250000 0.31250000 0.06250000     weight = 0.01171875

band   1 # energy   -1.35815729 # occ.  2.00000000

ion      s     py     pz     px    dxy    dyz    dz2    dxz    dx2    tot
  1  0.319  0.001  0.074  0.001  0.003  0.004  0.270  0.004  0.000  0.675

band   2 # energy   -0.35755277 # occ.  2.00000000

ion      s     py     pz     px    dxy    dyz    dz2    dxz    dx2    tot
  1  0.001  0.001  0.000  0.001  0.868  0.003  0.002  0.003  0.000  0.879

band   3 # energy    1.54069054 # occ.  2.00000000

ion      s     py     pz     px    dxy    dyz    dz2    dxz    dx2    tot
  1  0.094  0.001  0.048  0.001  0.003  0.109  0.490  0.109  0.000  0.854

band   4 # energy    2.28909234 # occ.  2.00000000

ion      s     py     pz     px    dxy    dyz    dz2    dxz    dx2    tot
  1  0.000  0.006  0.000  0.006  0.000  0.398  0.000  0.398  0.133  0.941

band   5 # energy    2.67534953 # occ.  2.00000000

ion      s     py     pz     px    dxy    dyz    dz2    dxz    dx2    tot
  1  0.046  0.006  0.025  0.006  0.005  0.349  0.125  0.349  0.000  0.911

band   6 # energy    3.11262960 # occ.  2.00000000

ion      s     py     pz     px    dxy    dyz    dz2    dxz    dx2    tot
  1  0.000  0.000  0.000  0.000  0.000  0.067  0.000  0.067  0.836  0.971

band   7 # energy   18.39658812 # occ.  0.00000000

ion      s     py     pz     px    dxy    dyz    dz2    dxz    dx2    tot
  1  0.096  0.164  0.068  0.164  0.020  0.050  0.001  0.050  0.000  0.612

band   8 # energy   19.65707287 # occ.  0.00000000
