<?xml version="1.0" encoding="ISO-8859-1"?>
<modeling>
 <generator>
  <i name="program"" type=""stringvasp</i>
  <i name="version"" type=""string4.6.26 </i>
  <i name="subversion"" type=""string15Dec04 complex  serial</i>
  <i name="platform"" type=""stringLinuxPgi</i>
  <i name="date"" type=""string2009 11 30</i>
  <i name="time"" type=""string08:13:59</i>
 </generator>
 <incar>
  <i type=""string"" nameSYSTEM"" Au, FCC</i>
  <i type=""int"" nameISTART""     0</i>
  <i type=""string"" namePREC""normal ! set fft mesh, cutoffs</i>
  <i type=""string"" nameALGO"" Fast   ! use fast algorithm for electro</i>
  <i type=""int"" nameISPIN""     1</i>
  <i name="EDIFF""      0.00010000</i>
  <i name="ENCUT""    350.00000000</i>
  <i type=""int"" nameISMEAR""     0</i>
  <i name="SIGMA""      0.10000000</i>
  <i type=""int"" nameNWRITE""     1</i>
  <i type=""logical"" nameLWAVE"" F  </i>
  <i type=""logical"" nameLCHARG"" T  </i>
  <i type=""logical"" nameLVTOT"" F  </i>
  <i type=""logical"" nameLORBIT"" F  </i>
 </incar>
 <kpoints>
  <generation param="Monkhorst-Pack">
   <v type=""int"" namedivisions""       8       8       8</v>
   <v name="usershift""      0.00000000      0.00000000      0.00000000</v>
   <v name="genvec1""      0.12500000      0.00000000      0.00000000</v>
   <v name="genvec2""      0.00000000      0.12500000      0.00000000</v>
   <v name="genvec3""      0.00000000      0.00000000      0.12500000</v>
   <v name="shift""      0.50000000      0.50000000      0.50000000</v>
  </generation>
  <varray name="kpointlist"">
   <v>       0.06250000      0.06250000      0.06250000</v>
   <v>       0.18750000      0.06250000      0.06250000</v>
   <v>       0.31250000      0.06250000      0.06250000</v>
   <v>       0.43750000      0.06250000      0.06250000</v>
   <v>      -0.43750000      0.06250000      0.06250000</v>
   <v>      -0.31250000      0.06250000      0.06250000</v>
   <v>      -0.18750000      0.06250000      0.06250000</v>
   <v>      -0.06250000      0.06250000      0.06250000</v>
   <v>       0.18750000      0.18750000      0.06250000</v>
   <v>       0.31250000      0.18750000      0.06250000</v>
   <v>       0.43750000      0.18750000      0.06250000</v>
   <v>      -0.43750000      0.18750000      0.06250000</v>
   <v>      -0.31250000      0.18750000      0.06250000</v>
   <v>      -0.18750000      0.18750000      0.06250000</v>
   <v>      -0.06250000      0.18750000      0.06250000</v>
   <v>       0.31250000      0.31250000      0.06250000</v>
   <v>       0.43750000      0.31250000      0.06250000</v>
   <v>      -0.43750000      0.31250000      0.06250000</v>
   <v>      -0.31250000      0.31250000      0.06250000</v>
   <v>      -0.18750000      0.31250000      0.06250000</v>
   <v>      -0.06250000      0.31250000      0.06250000</v>
   <v>       0.43750000      0.43750000      0.06250000</v>
   <v>      -0.43750000      0.43750000      0.06250000</v>
   <v>      -0.31250000      0.43750000      0.06250000</v>
   <v>      -0.18750000      0.43750000      0.06250000</v>
   <v>      -0.06250000      0.43750000      0.06250000</v>
   <v>      -0.43750000     -0.43750000      0.06250000</v>
   <v>      -0.31250000     -0.43750000      0.06250000</v>
   <v>      -0.18750000     -0.43750000      0.06250000</v>
   <v>      -0.31250000     -0.31250000      0.06250000</v>
   <v>      -0.18750000     -0.31250000      0.06250000</v>
   <v>      -0.18750000     -0.18750000      0.06250000</v>
   <v>       0.18750000      0.18750000      0.18750000</v>
   <v>       0.31250000      0.18750000      0.18750000</v>
   <v>       0.43750000      0.18750000      0.18750000</v>
   <v>      -0.43750000      0.18750000      0.18750000</v>
   <v>      -0.31250000      0.18750000      0.18750000</v>
   <v>      -0.18750000      0.18750000      0.18750000</v>
   <v>       0.31250000      0.31250000      0.18750000</v>
   <v>       0.43750000      0.31250000      0.18750000</v>
   <v>      -0.43750000      0.31250000      0.18750000</v>
   <v>      -0.31250000      0.31250000      0.18750000</v>
   <v>      -0.18750000      0.31250000      0.18750000</v>
   <v>       0.43750000      0.43750000      0.18750000</v>
   <v>      -0.43750000      0.43750000      0.18750000</v>
   <v>      -0.31250000      0.43750000      0.18750000</v>
   <v>      -0.18750000      0.43750000      0.18750000</v>
   <v>      -0.43750000     -0.43750000      0.18750000</v>
   <v>      -0.31250000     -0.43750000      0.18750000</v>
   <v>      -0.31250000     -0.31250000      0.18750000</v>
   <v>       0.31250000      0.31250000      0.31250000</v>
   <v>       0.43750000      0.31250000      0.31250000</v>
   <v>      -0.43750000      0.31250000      0.31250000</v>
   <v>      -0.31250000      0.31250000      0.31250000</v>
   <v>       0.43750000      0.43750000      0.31250000</v>
   <v>      -0.43750000      0.43750000      0.31250000</v>
   <v>      -0.31250000      0.43750000      0.31250000</v>
   <v>      -0.43750000     -0.43750000      0.31250000</v>
   <v>       0.43750000      0.43750000      0.43750000</v>
   <v>      -0.43750000      0.43750000      0.43750000</v>
  </varray>
  <varray name="weights"">
   <v>       0.00390625</v>
   <v>       0.01171875</v>
   <v>       0.01171875</v>
   <v>       0.01171875</v>
   <v>       0.01171875</v>
   <v>       0.01171875</v>
   <v>       0.01171875</v>
   <v>       0.01171875</v>
   <v>       0.01171875</v>
   <v>       0.02343750</v>
   <v>       0.02343750</v>
   <v>       0.02343750</v>
   <v>       0.02343750</v>
   <v>       0.02343750</v>
   <v>       0.02343750</v>
   <v>       0.01171875</v>
   <v>       0.02343750</v>
   <v>       0.02343750</v>
   <v>       0.02343750</v>
   <v>       0.02343750</v>
   <v>       0.02343750</v>
   <v>       0.01171875</v>
   <v>       0.02343750</v>
   <v>       0.02343750</v>
   <v>       0.02343750</v>
   <v>       0.02343750</v>
   <v>       0.01171875</v>
   <v>       0.02343750</v>
   <v>       0.02343750</v>
   <v>       0.01171875</v>
   <v>       0.02343750</v>
   <v>       0.01171875</v>
   <v>       0.00390625</v>
   <v>       0.01171875</v>
   <v>       0.01171875</v>
   <v>       0.01171875</v>
   <v>       0.01171875</v>
   <v>       0.01171875</v>
   <v>       0.01171875</v>
   <v>       0.02343750</v>
   <v>       0.02343750</v>
   <v>       0.02343750</v>
   <v>       0.02343750</v>
   <v>       0.01171875</v>
   <v>       0.02343750</v>
   <v>       0.02343750</v>
   <v>       0.02343750</v>
   <v>       0.01171875</v>
   <v>       0.02343750</v>
   <v>       0.01171875</v>
   <v>       0.00390625</v>
   <v>       0.01171875</v>
   <v>       0.01171875</v>
   <v>       0.01171875</v>
   <v>       0.01171875</v>
   <v>       0.02343750</v>
   <v>       0.02343750</v>
   <v>       0.01171875</v>
   <v>       0.00390625</v>
   <v>       0.01171875</v>
  </varray>
 </kpoints>
 <parameters>
  <separator name="general"">
   <i type=""string"" nameSYSTEM""Au, FCC</i>
   <i type=""logical"" nameLCOMPAT"" F  </i>
  </separator>
  <separator name="electronic"">
   <i type=""string"" namePREC""normal</i>
   <i name="ENMAX""    350.00000000</i>
   <i name="ENAUG""    356.67000000</i>
   <i name="EDIFF""      0.00010000</i>
   <i type=""int"" nameIALGO""    68</i>
   <i type=""int"" nameIWAVPR""     0</i>
   <i type=""int"" nameNBANDS""     9</i>
   <i name="NELECT""     11.00000000</i>
   <separator name="electronic smearing"">
    <i type=""int"" nameISMEAR""     0</i>
    <i name="SIGMA""      0.10000000</i>
   </separator>
   <separator name="electronic projectors"">
    <i type=""logical"" nameLREAL"" F  </i>
    <v name="ROPT""      0.00000000</v>
    <i type=""int"" nameLMAXPAW""  -100</i>
    <i type=""int"" nameLMAXMIX""     2</i>
   </separator>
   <separator name="electronic startup"">
    <i type=""int"" nameISTART""     0</i>
    <i type=""int"" nameICHARG""     2</i>
    <i type=""int"" nameINIWAV""     1</i>
   </separator>
   <separator name="electronic spin"">
    <i type=""int"" nameISPIN""     1</i>
    <i type=""logical"" nameLNONCOLLINEAR"" F  </i>
    <v name="MAGMOM""      1.00000000</v>
    <i name="NUPDOWN""     -1.00000000</i>
    <i type=""logical"" nameLSORBIT"" F  </i>
    <v name="SAXIS""      0.00000000      0.00000000      1.00000000</v>
    <i type=""logical"" nameLSPIRAL"" F  </i>
    <v name="QSPIRAL""      0.00000000      0.00000000      0.00000000</v>
    <i type=""logical"" nameLZEROZ"" F  </i>
   </separator>
   <separator name="electronic exchange-correlation"">
    <i type=""string"" nameGGA""--</i>
    <i type=""int"" nameVOSKOWN""     0</i>
    <i type=""logical"" nameLASPH"" F  </i>
    <i type=""logical"" nameLMETAGGA"" F  </i>
    <i type=""string"" nameGGA2""--</i>
   </separator>
   <separator name="electronic convergence"">
    <i type=""int"" nameNELM""    60</i>
    <i type=""int"" nameNELMDL""    -5</i>
    <i type=""int"" nameNELMIN""     2</i>
    <i name="ENINI""    350.00000000</i>
    <separator name="electronic convergence detail"">
     <i type=""logical"" nameLDIAG"" T  </i>
     <i name="WEIMIN""      0.00000000</i>
     <i name="EBREAK""      0.00000278</i>
     <i name="DEPER""      0.30000000</i>
     <i type=""int"" nameNRMM""     4</i>
     <i name="TIME""      0.10000000</i>
    </separator>
   </separator>
   <separator name="electronic mixer"">
    <i name="AMIX""      0.40000000</i>
    <i name="BMIX""      1.00000000</i>
    <i name="AMIN""      0.10000000</i>
    <i name="AMIX_MAG""      1.60000000</i>
    <i name="BMIX_MAG""      1.00000000</i>
    <separator name="electronic mixer details"">
     <i type=""int"" nameIMIX""     4</i>
     <i type=""int"" nameMAXMIX""   -45</i>
     <i name="WC""    100.00000000</i>
     <i type=""int"" nameINIMIX""     1</i>
     <i type=""int"" nameMIXPRE""     1</i>
     <i type=""int"" nameMREMOVE""     5</i>
    </separator>
   </separator>
   <separator name="electronic dipolcorrection"">
    <i type=""int"" nameIDIPOL""     0</i>
    <i type=""logical"" nameLDIPOL"" F  </i>
    <v name="DIPOL""   -100.00000000</v>
    <i name="EFIELD""      0.00000000</i>
   </separator>
  </separator>
  <separator name="grids"">
   <i type=""int"" nameNGX""    14</i>
   <i type=""int"" nameNGY""    14</i>
   <i type=""int"" nameNGZ""    14</i>
   <i type=""int"" nameNGXF""    28</i>
   <i type=""int"" nameNGYF""    28</i>
   <i type=""int"" nameNGZF""    28</i>
   <i type=""logical"" nameADDGRID"" F  </i>
  </separator>
  <separator name="ionic"">
   <i type=""int"" nameNSW""     0</i>
   <i type=""int"" nameIBRION""    -1</i>
   <i type=""int"" nameISIF""     2</i>
   <i name="PSTRESS""      0.00000000</i>
   <i name="EDIFFG""      0.00100000</i>
   <i type=""int"" nameNFREE""     0</i>
   <i name="POTIM""      0.50000000</i>
   <i name="SMASS""     -3.00000000</i>
  </separator>
  <separator name="ionic md"">
   <i name="TEBEG""      0.00010000</i>
   <i name="TEEND""      0.00010000</i>
   <i type=""int"" nameNBLOCK""     1</i>
   <i type=""int"" nameKBLOCK""     1</i>
   <i type=""int"" nameNPACO""   256</i>
   <i name="APACO""     16.00000000</i>
  </separator>
  <separator name="symmetry"">
   <i type=""int"" nameISYM""     2</i>
   <i name="SYMPREC""      0.00001000</i>
  </separator>
  <separator name="dos"">
   <i type=""logical"" nameLORBIT"" F  </i>
   <v name="RWIGS""     -1.00000000</v>
   <i type=""int"" nameNEDOS""   301</i>
   <i name="EMIN""     10.00000000</i>
   <i name="EMAX""    -10.00000000</i>
  </separator>
  <separator name="writing"">
   <i type=""int"" nameNWRITE""     1</i>
   <i type=""logical"" nameLWAVE"" F  </i>
   <i type=""logical"" nameLCHARG"" T  </i>
   <i type=""logical"" nameLPARD"" F  </i>
   <i type=""logical"" nameLVTOT"" F  </i>
   <i type=""logical"" nameLELF"" F  </i>
   <i type=""logical"" nameLOPTICS"" F  </i>
   <i name="STM""      0.00000000</i>
  </separator>
  <separator name="performance"">
   <i type=""int"" nameNPAR""     1</i>
   <i type=""int"" nameNSIM""     4</i>
   <i type=""int"" nameNBLK""    32</i>
   <i type=""logical"" nameLPLANE"" T  </i>
   <i type=""logical"" nameLCRITICAL_MEM"" F  </i>
   <i type=""logical"" nameLSCALAPACK"" F  </i>
   <i type=""logical"" nameLSCALU"" F  </i>
   <i type=""logical"" nameLASYNC"" F  </i>
  </separator>
  <separator name="miscellaneous"">
   <i type=""int"" nameIDIOT""     3</i>
   <i type=""logical"" nameLMUSIC"" F  </i>
   <v name="POMASS""    196.96600000</v>
   <i type=""logical"" nameLCORR"" T  </i>
  </separator>
  <i type=""logical"" nameLREAL_COMPAT"" F  </i>
  <i type=""logical"" nameGGA_COMPAT"" T  </i>
  <i type=""logical"" nameLBERRY"" F  </i>
  <i type=""int"" nameICORELEVEL""     0</i>
  <i type=""logical"" nameLDAU"" F  </i>
  <i type=""int"" nameI_CONSTRAINED_M""     0</i>
 </parameters>
 <atominfo>
  <atoms>       1</atoms>
  <types>       1</types>
  <array name="atoms"">
   <dimension dim="1">ion</dimension>
   <field type="string">element</field>
   <field type="int">atomtype</field>
   <set>
    <rc><c>Au</c><c>   1</c></rc>
   </set>
  </array>
  <array name="atomtypes"">
   <dimension dim="1">type</dimension>
   <field type="int">atomspertype</field>
   <field type="string">element</field>
   <field>mass</field>
   <field>valence</field>
   <field type="string">pseudopotential</field>
   <set>
    <rc><c>   1</c><c>Au</c><c>    196.96600000</c><c>     11.00000000</c><c> PAW_GGA Au 18Jul2000                   </c></rc>
   </set>
  </array>
 </atominfo>
 <structure name="initialpos"">
  <crystal>
   <varray name="basis"">
    <v>       0.00000000      2.05000000      2.05000000</v>
    <v>       2.05000000      0.00000000      2.05000000</v>
    <v>       2.05000000      2.05000000      0.00000000</v>
   </varray>
   <i name="volume""     17.23025000</i>
   <varray name="rec_basis"">
    <v>      -0.24390244      0.24390244      0.24390244</v>
    <v>       0.24390244     -0.24390244      0.24390244</v>
    <v>       0.24390244      0.24390244     -0.24390244</v>
   </varray>
  </crystal>
  <varray name="positions"">
   <v>       0.00000000      0.00000000      0.00000000</v>
  </varray>
 </structure>
 <calculation>
  <scstep>
   <time name="dav""    1.29    1.18</time>
   <time name="total""    1.34    1.24</time>
   <energy>
    <i name="alphaZ""    108.46479128</i>
    <i name="ewald""   -974.21287850</i>
    <i name="hartreedc""   -125.19452153</i>
    <i name="XCdc""     15.17178456</i>
    <i name="pawpsdc""    747.65313744</i>
    <i name="pawaedc""   -724.56448596</i>
    <i name="eentropy""     -0.00368562</i>
    <i name="bandstr""     69.45174937</i>
    <i name="atom""    927.07761444</i>
    <i name="e_fr_energy""     43.84350548</i>
    <i name="e_wo_entrp""     43.84719110</i>
    <i name="e_0_energy""     43.84534829</i>
   </energy>
  </scstep>
  <scstep>
   <time name="dav""    1.11    1.01</time>
   <time name="total""    1.11    1.02</time>
   <energy>
    <i name="e_fr_energy""     -2.85624370</i>
    <i name="e_wo_entrp""     -2.85510009</i>
    <i name="e_0_energy""     -2.85567189</i>
   </energy>
  </scstep>
  <scstep>
   <time name="dav""    1.29    1.21</time>
   <time name="total""    1.29    1.21</time>
   <energy>
    <i name="e_fr_energy""     -3.43435439</i>
    <i name="e_wo_entrp""     -3.43309937</i>
    <i name="e_0_energy""     -3.43372688</i>
   </energy>
  </scstep>
  <scstep>
   <time name="dav""    1.21    1.11</time>
   <time name="total""    1.22    1.11</time>
   <energy>
    <i name="e_fr_energy""     -3.43582871</i>
    <i name="e_wo_entrp""     -3.43457216</i>
    <i name="e_0_energy""     -3.43520043</i>
   </energy>
  </scstep>
  <scstep>
   <time name="dav""    1.25    1.16</time>
   <time name="total""    1.30    1.22</time>
   <energy>
    <i name="e_fr_energy""     -3.43584029</i>
    <i name="e_wo_entrp""     -3.43458372</i>
    <i name="e_0_energy""     -3.43521200</i>
   </energy>
  </scstep>
  <scstep>
   <time name="diag""    0.19    0.19</time>
   <time name="diis""    0.80    0.79</time>
   <time name="orth""    0.03    0.02</time>
   <time name="total""    1.13    1.10</time>
   <energy>
    <i name="e_fr_energy""     -3.20194619</i>
    <i name="e_wo_entrp""     -3.20095164</i>
    <i name="e_0_energy""     -3.20144891</i>
   </energy>
  </scstep>
  <scstep>
   <time name="diag""    0.19    0.19</time>
   <time name="diis""    0.86    0.82</time>
   <time name="orth""    0.03    0.02</time>
   <time name="total""    1.18    1.15</time>
   <energy>
    <i name="e_fr_energy""     -3.18217079</i>
    <i name="e_wo_entrp""     -3.18120581</i>
    <i name="e_0_energy""     -3.18168830</i>
   </energy>
  </scstep>
  <scstep>
   <time name="diag""    0.19    0.19</time>
   <time name="diis""    0.86    0.84</time>
   <time name="orth""    0.03    0.02</time>
   <time name="total""    1.18    1.15</time>
   <energy>
    <i name="e_fr_energy""     -3.17855961</i>
    <i name="e_wo_entrp""     -3.17759745</i>
    <i name="e_0_energy""     -3.17807853</i>
   </energy>
  </scstep>
  <scstep>
   <time name="diag""    0.20    0.19</time>
   <time name="diis""    0.56    0.55</time>
   <time name="orth""    0.03    0.02</time>
   <time name="total""    0.84    0.81</time>
   <energy>
    <i name="alphaZ""    108.46479128</i>
    <i name="ewald""   -974.21287850</i>
    <i name="hartreedc""   -114.40501912</i>
    <i name="XCdc""     14.67057629</i>
    <i name="pawpsdc""    754.72662629</i>
    <i name="pawaedc""   -734.34872563</i>
    <i name="eentropy""     -0.00096187</i>
    <i name="bandstr""     14.84940370</i>
    <i name="atom""    927.07761444</i>
    <i name="e_fr_energy""     -3.17857312</i>
    <i name="e_wo_entrp""     -3.17761125</i>
    <i name="e_0_energy""     -3.17809218</i>
   </energy>
  </scstep>
  <structure>
   <crystal>
    <varray name="basis"">
     <v>       0.00000000      2.05000000      2.05000000</v>
     <v>       2.05000000      0.00000000      2.05000000</v>
     <v>       2.05000000      2.05000000      0.00000000</v>
    </varray>
    <i name="volume""     17.23025000</i>
    <varray name="rec_basis"">
     <v>      -0.24390244      0.24390244      0.24390244</v>
     <v>       0.24390244     -0.24390244      0.24390244</v>
     <v>       0.24390244      0.24390244     -0.24390244</v>
    </varray>
   </crystal>
   <varray name="positions"">
    <v>       0.00000000      0.00000000      0.00000000</v>
   </varray>
  </structure>
  <varray name="forces"">
   <v>       0.00000000      0.00000000      0.00000000</v>
  </varray>
  <varray name="stress"">
   <v>      74.93403929      0.00000000      0.00000000</v>
   <v>       0.00000000     74.93403929      0.00000000</v>
   <v>       0.00000000      0.00000000     74.93403929</v>
  </varray>
  <energy>
   <i name="e_fr_energy""     -3.17857312</i>
   <i name="e_wo_entrp""     -3.17809218</i>
   <i name="e_0_energy""     -0.00096187</i>
  </energy>
  <eigenvalues>
   <array>
    <dimension dim="1">band</dimension>
    <dimension dim="2">kpoint</dimension>
    <dimension dim="3">spin</dimension>
    <field>eigene</field>
    <field>occ</field>
    <set>
     <set comment="spin 1">
      <set comment="kpoint 1">
       <r>  -4.0163  1.0000</r>
       <r>   0.8501  1.0000</r>
       <r>   0.9394  1.0000</r>
       <r>   0.9394  1.0000</r>
       <r>   2.3635  1.0000</r>
       <r>   2.3635  1.0000</r>
       <r>  21.1001  0.0000</r>
       <r>  23.7526  0.0000</r>
       <r>  24.8851  0.0000</r>
      </set>
      <set comment="kpoint 2">
       <r>  -3.3303  1.0000</r>
       <r>   0.6443  1.0000</r>
       <r>   1.1404  1.0000</r>
       <r>   1.1616  1.0000</r>
       <r>   2.1627  1.0000</r>
       <r>   2.4768  1.0000</r>
       <r>  20.7753  0.0000</r>
       <r>  21.7814  0.0000</r>
       <r>  24.2972  0.0000</r>
      </set>
      <set comment="kpoint 3">
       <r>  -2.0671  1.0000</r>
       <r>   0.7582  1.0000</r>
       <r>   1.1693  1.0000</r>
       <r>   1.2167  1.0000</r>
       <r>   2.4063  1.0000</r>
       <r>   2.9839  1.0000</r>
       <r>  16.0263  0.0000</r>
       <r>  21.5454  0.0000</r>
       <r>  23.8506  0.0000</r>
      </set>
      <set comment="kpoint 4">
       <r>  -1.5748  1.0000</r>
       <r>   0.8960  1.0000</r>
       <r>   1.0005  1.0000</r>
       <r>   2.3841  1.0000</r>
       <r>   3.1567  1.0000</r>
       <r>   4.0201  1.0000</r>
       <r>  11.1172  0.0000</r>
       <r>  20.6281  0.0000</r>
       <r>  22.5217  0.0000</r>
      </set>
      <set comment="kpoint 5">
       <r>  -1.5678  1.0000</r>
       <r>   0.7967  1.0000</r>
       <r>   0.9420  1.0000</r>
       <r>   2.9760  1.0000</r>
       <r>   3.5696  1.0000</r>
       <r>   5.2231  0.9998</r>
       <r>   8.7318  0.0000</r>
       <r>  20.3493  0.0000</r>
       <r>  22.5794  0.0000</r>
      </set>
      <set comment="kpoint 6">
       <r>  -1.6338  1.0000</r>
       <r>   0.9446  1.0000</r>
       <r>   1.0992  1.0000</r>
       <r>   1.6788  1.0000</r>
       <r>   3.2773  1.0000</r>
       <r>   3.3078  1.0000</r>
       <r>  12.6756  0.0000</r>
       <r>  21.0134  0.0000</r>
       <r>  23.1286  0.0000</r>
      </set>
      <set comment="kpoint 7">
       <r>  -2.4739  1.0000</r>
       <r>   0.5784  1.0000</r>
       <r>   1.2107  1.0000</r>
       <r>   1.2611  1.0000</r>
       <r>   2.3109  1.0000</r>
       <r>   2.6829  1.0000</r>
       <r>  17.7114  0.0000</r>
       <r>  22.0171  0.0000</r>
       <r>  24.1141  0.0000</r>
      </set>
      <set comment="kpoint 8">
       <r>  -3.6634  1.0000</r>
       <r>   0.6940  1.0000</r>
       <r>   1.0816  1.0000</r>
       <r>   1.0873  1.0000</r>
       <r>   2.1854  1.0000</r>
       <r>   2.4539  1.0000</r>
       <r>  21.3904  0.0000</r>
       <r>  22.5620  0.0000</r>
       <r>  24.4101  0.0000</r>
      </set>
      <set comment="kpoint 9">
       <r>  -2.9932  1.0000</r>
       <r>   0.3930  1.0000</r>
       <r>   1.3517  1.0000</r>
       <r>   1.3762  1.0000</r>
       <r>   1.9301  1.0000</r>
       <r>   2.6240  1.0000</r>
       <r>  21.1323  0.0000</r>
       <r>  22.1814  0.0000</r>
       <r>  23.2233  0.0000</r>
      </set>
      <set comment="kpoint 10">
       <r>  -1.8744  1.0000</r>
       <r>   0.1234  1.0000</r>
       <r>   1.1610  1.0000</r>
       <r>   1.7282  1.0000</r>
       <r>   2.2450  1.0000</r>
       <r>   3.0885  1.0000</r>
       <r>  18.0523  0.0000</r>
       <r>  20.5407  0.0000</r>
       <r>  22.9930  0.0000</r>
      </set>
      <set comment="kpoint 11">
       <r>  -1.0922  1.0000</r>
       <r>   0.6386  1.0000</r>
       <r>   0.8100  1.0000</r>
       <r>   1.5864  1.0000</r>
       <r>   3.2292  1.0000</r>
       <r>   4.3990  1.0000</r>
       <r>  13.0052  0.0000</r>
       <r>  19.8713  0.0000</r>
       <r>  20.9090  0.0000</r>
      </set>
      <set comment="kpoint 12">
       <r>  -1.0435  1.0000</r>
       <r>   0.4790  1.0000</r>
       <r>   1.3854  1.0000</r>
       <r>   1.7856  1.0000</r>
       <r>   3.5040  1.0000</r>
       <r>   6.9930  0.0000</r>
       <r>   8.7843  0.0000</r>
       <r>  19.3243  0.0000</r>
       <r>  20.1650  0.0000</r>
      </set>
      <set comment="kpoint 13">
       <r>  -0.9970  1.0000</r>
       <r>   0.6020  1.0000</r>
       <r>   1.2538  1.0000</r>
       <r>   1.5124  1.0000</r>
       <r>   3.0490  1.0000</r>
       <r>   5.2864  0.9960</r>
       <r>  11.5448  0.0000</r>
       <r>  18.6719  0.0000</r>
       <r>  21.2789  0.0000</r>
      </set>
      <set comment="kpoint 14">
       <r>  -1.4485  1.0000</r>
       <r>   0.2888  1.0000</r>
       <r>   1.0018  1.0000</r>
       <r>   1.6798  1.0000</r>
       <r>   2.1576  1.0000</r>
       <r>   3.6684  1.0000</r>
       <r>  16.3127  0.0000</r>
       <r>  19.1730  0.0000</r>
       <r>  23.0162  0.0000</r>
      </set>
      <set comment="kpoint 15">
       <r>  -2.6995  1.0000</r>
       <r>   0.4324  1.0000</r>
       <r>   1.2600  1.0000</r>
       <r>   1.3746  1.0000</r>
       <r>   2.0337  1.0000</r>
       <r>   2.7190  1.0000</r>
       <r>  19.4346  0.0000</r>
       <r>  21.4967  0.0000</r>
       <r>  23.8784  0.0000</r>
      </set>
      <set comment="kpoint 16">
       <r>  -1.3582  1.0000</r>
       <r>  -0.3576  1.0000</r>
       <r>   1.5407  1.0000</r>
       <r>   2.2891  1.0000</r>
       <r>   2.6753  1.0000</r>
       <r>   3.1126  1.0000</r>
       <r>  18.3966  0.0000</r>
       <r>  19.6571  0.0000</r>
       <r>  20.6513  0.0000</r>
      </set>
      <set comment="kpoint 17">
       <r>  -0.9068  1.0000</r>
       <r>  -0.4953  1.0000</r>
       <r>   1.5164  1.0000</r>
       <r>   2.6644  1.0000</r>
       <r>   3.2966  1.0000</r>
       <r>   4.5432  1.0000</r>
       <r>  14.9845  0.0000</r>
       <r>  17.4584  0.0000</r>
       <r>  18.3307  0.0000</r>
      </set>
      <set comment="kpoint 18">
       <r>  -0.7179  1.0000</r>
       <r>  -0.0444  1.0000</r>
       <r>   1.2835  1.0000</r>
       <r>   2.3380  1.0000</r>
       <r>   3.5811  1.0000</r>
       <r>   7.6141  0.0000</r>
       <r>  10.6654  0.0000</r>
       <r>  15.7367  0.0000</r>
       <r>  18.1435  0.0000</r>
      </set>
      <set comment="kpoint 19">
       <r>  -0.3509  1.0000</r>
       <r>   0.3133  1.0000</r>
       <r>   0.8590  1.0000</r>
       <r>   2.0933  1.0000</r>
       <r>   3.0970  1.0000</r>
       <r>   7.4237  0.0000</r>
       <r>  11.6272  0.0000</r>
       <r>  14.1666  0.0000</r>
       <r>  19.8145  0.0000</r>
      </set>
      <set comment="kpoint 20">
       <r>  -0.5071  1.0000</r>
       <r>   0.4230  1.0000</r>
       <r>   0.6343  1.0000</r>
       <r>   1.8634  1.0000</r>
       <r>   2.5876  1.0000</r>
       <r>   5.2878  0.9957</r>
       <r>  13.5513  0.0000</r>
       <r>  16.4312  0.0000</r>
       <r>  21.5423  0.0000</r>
      </set>
      <set comment="kpoint 21">
       <r>  -1.5654  1.0000</r>
       <r>   0.7969  1.0000</r>
       <r>   1.0113  1.0000</r>
       <r>   1.3238  1.0000</r>
       <r>   2.7072  1.0000</r>
       <r>   3.5324  1.0000</r>
       <r>  14.4609  0.0000</r>
       <r>  20.8783  0.0000</r>
       <r>  22.5021  0.0000</r>
      </set>
      <set comment="kpoint 22">
       <r>  -1.2365  1.0000</r>
       <r>  -0.9292  1.0000</r>
       <r>   3.0990  1.0000</r>
       <r>   3.2247  1.0000</r>
       <r>   3.6280  1.0000</r>
       <r>   5.0525  1.0000</r>
       <r>  13.8769  0.0000</r>
       <r>  16.2402  0.0000</r>
       <r>  16.7266  0.0000</r>
      </set>
      <set comment="kpoint 23">
       <r>  -1.1331  1.0000</r>
       <r>  -0.8457  1.0000</r>
       <r>   2.6828  1.0000</r>
       <r>   3.1913  1.0000</r>
       <r>   3.8010  1.0000</r>
       <r>   7.7261  0.0000</r>
       <r>  11.3098  0.0000</r>
       <r>  14.6967  0.0000</r>
       <r>  16.0836  0.0000</r>
      </set>
      <set comment="kpoint 24">
       <r>  -0.7466  1.0000</r>
       <r>  -0.1772  1.0000</r>
       <r>   1.5664  1.0000</r>
       <r>   2.5841  1.0000</r>
       <r>   3.5391  1.0000</r>
       <r>   9.3173  0.0000</r>
       <r>  10.2200  0.0000</r>
       <r>  13.4526  0.0000</r>
       <r>  17.7156  0.0000</r>
      </set>
      <set comment="kpoint 25">
       <r>  -0.6450  1.0000</r>
       <r>   0.2917  1.0000</r>
       <r>   1.3106  1.0000</r>
       <r>   1.7540  1.0000</r>
       <r>   3.3407  1.0000</r>
       <r>   7.7781  0.0000</r>
       <r>   9.3320  0.0000</r>
       <r>  16.7902  0.0000</r>
       <r>  19.9268  0.0000</r>
      </set>
      <set comment="kpoint 26">
       <r>  -1.3727  1.0000</r>
       <r>   0.7139  1.0000</r>
       <r>   1.1169  1.0000</r>
       <r>   2.2163  1.0000</r>
       <r>   3.4360  1.0000</r>
       <r>   5.2673  0.9982</r>
       <r>   9.8038  0.0000</r>
       <r>  20.3776  0.0000</r>
       <r>  21.3787  0.0000</r>
      </set>
      <set comment="kpoint 27">
       <r>  -1.3484  1.0000</r>
       <r>  -1.0563  1.0000</r>
       <r>   3.4273  1.0000</r>
       <r>   3.5352  1.0000</r>
       <r>   3.8213  1.0000</r>
       <r>   6.6920  0.0000</r>
       <r>  11.6161  0.0000</r>
       <r>  15.4573  0.0000</r>
       <r>  16.0287  0.0000</r>
      </set>
      <set comment="kpoint 28">
       <r>  -1.0183  1.0000</r>
       <r>  -0.7239  1.0000</r>
       <r>   2.1886  1.0000</r>
       <r>   3.0670  1.0000</r>
       <r>   3.6028  1.0000</r>
       <r>   6.0347  0.0000</r>
       <r>  13.1985  0.0000</r>
       <r>  15.7324  0.0000</r>
       <r>  16.7705  0.0000</r>
      </set>
      <set comment="kpoint 29">
       <r>  -0.7927  1.0000</r>
       <r>   0.2432  1.0000</r>
       <r>   0.9640  1.0000</r>
       <r>   1.9558  1.0000</r>
       <r>   3.5224  1.0000</r>
       <r>   5.8114  0.0000</r>
       <r>  11.6981  0.0000</r>
       <r>  18.2706  0.0000</r>
       <r>  19.0440  0.0000</r>
      </set>
      <set comment="kpoint 30">
       <r>  -1.1307  1.0000</r>
       <r>  -0.6873  1.0000</r>
       <r>   2.2811  1.0000</r>
       <r>   2.8079  1.0000</r>
       <r>   3.3755  1.0000</r>
       <r>   3.6001  1.0000</r>
       <r>  16.4477  0.0000</r>
       <r>  17.9080  0.0000</r>
       <r>  17.9965  0.0000</r>
      </set>
      <set comment="kpoint 31">
       <r>  -1.1362  1.0000</r>
       <r>  -0.2014  1.0000</r>
       <r>   1.0883  1.0000</r>
       <r>   2.1710  1.0000</r>
       <r>   2.7965  1.0000</r>
       <r>   3.6073  1.0000</r>
       <r>  16.5764  0.0000</r>
       <r>  19.0639  0.0000</r>
       <r>  20.7854  0.0000</r>
      </set>
      <set comment="kpoint 32">
       <r>  -2.1177  1.0000</r>
       <r>   0.0206  1.0000</r>
       <r>   1.4212  1.0000</r>
       <r>   1.7890  1.0000</r>
       <r>   2.0611  1.0000</r>
       <r>   2.8530  1.0000</r>
       <r>  19.9377  0.0000</r>
       <r>  21.4977  0.0000</r>
       <r>  22.4728  0.0000</r>
      </set>
      <set comment="kpoint 33">
       <r>  -3.0314  1.0000</r>
       <r>   0.6702  1.0000</r>
       <r>   1.1636  1.0000</r>
       <r>   1.1636  1.0000</r>
       <r>   2.3606  1.0000</r>
       <r>   2.3606  1.0000</r>
       <r>  19.2513  0.0000</r>
       <r>  22.0182  0.0000</r>
       <r>  25.6254  0.0000</r>
      </set>
      <set comment="kpoint 34">
       <r>  -2.1524  1.0000</r>
       <r>   0.4178  1.0000</r>
       <r>   1.1968  1.0000</r>
       <r>   1.4649  1.0000</r>
       <r>   1.9769  1.0000</r>
       <r>   3.1013  1.0000</r>
       <r>  17.8100  0.0000</r>
       <r>  20.4324  0.0000</r>
       <r>  24.1430  0.0000</r>
      </set>
      <set comment="kpoint 35">
       <r>  -0.9564  1.0000</r>
       <r>   0.4154  1.0000</r>
       <r>   0.9156  1.0000</r>
       <r>   1.6353  1.0000</r>
       <r>   2.2233  1.0000</r>
       <r>   4.3988  1.0000</r>
       <r>  14.8139  0.0000</r>
       <r>  17.7797  0.0000</r>
       <r>  22.8140  0.0000</r>
      </set>
      <set comment="kpoint 36">
       <r>  -0.8525  1.0000</r>
       <r>   0.4861  1.0000</r>
       <r>   1.4857  1.0000</r>
       <r>   1.5279  1.0000</r>
       <r>   3.1188  1.0000</r>
       <r>   6.3589  0.0000</r>
       <r>  10.3325  0.0000</r>
       <r>  17.6166  0.0000</r>
       <r>  21.9202  0.0000</r>
      </set>
      <set comment="kpoint 37">
       <r>  -0.9641  1.0000</r>
       <r>   0.4403  1.0000</r>
       <r>   1.3644  1.0000</r>
       <r>   1.5698  1.0000</r>
       <r>   3.6158  1.0000</r>
       <r>   6.3534  0.0000</r>
       <r>   9.9969  0.0000</r>
       <r>  18.8091  0.0000</r>
       <r>  20.5737  0.0000</r>
      </set>
      <set comment="kpoint 38">
       <r>  -1.1369  1.0000</r>
       <r>   0.1362  1.0000</r>
       <r>   0.9526  1.0000</r>
       <r>   1.7818  1.0000</r>
       <r>   3.3787  1.0000</r>
       <r>   3.6444  1.0000</r>
       <r>  14.7258  0.0000</r>
       <r>  20.4455  0.0000</r>
       <r>  20.7944  0.0000</r>
      </set>
      <set comment="kpoint 39">
       <r>  -1.7631  1.0000</r>
       <r>   0.3794  1.0000</r>
       <r>   1.0759  1.0000</r>
       <r>   1.4662  1.0000</r>
       <r>   2.7196  1.0000</r>
       <r>   3.0471  1.0000</r>
       <r>  16.2142  0.0000</r>
       <r>  21.9074  0.0000</r>
       <r>  22.2364  0.0000</r>
      </set>
      <set comment="kpoint 40">
       <r>  -0.7879  1.0000</r>
       <r>   0.1081  1.0000</r>
       <r>   0.7017  1.0000</r>
       <r>   2.0510  1.0000</r>
       <r>   2.6432  1.0000</r>
       <r>   4.4224  1.0000</r>
       <r>  14.9073  0.0000</r>
       <r>  17.7975  0.0000</r>
       <r>  21.0318  0.0000</r>
      </set>
      <set comment="kpoint 41">
       <r>  -0.1555  1.0000</r>
       <r>   0.1945  1.0000</r>
       <r>   0.4657  1.0000</r>
       <r>   2.2075  1.0000</r>
       <r>   3.0594  1.0000</r>
       <r>   6.4866  0.0000</r>
       <r>  12.5110  0.0000</r>
       <r>  15.2214  0.0000</r>
       <r>  19.1756  0.0000</r>
      </set>
      <set comment="kpoint 42">
       <r>  -0.3764  1.0000</r>
       <r>   0.0883  1.0000</r>
       <r>   0.9593  1.0000</r>
       <r>   2.1077  1.0000</r>
       <r>   3.4634  1.0000</r>
       <r>   8.5211  0.0000</r>
       <r>   9.6196  0.0000</r>
       <r>  15.9294  0.0000</r>
       <r>  17.7744  0.0000</r>
      </set>
      <set comment="kpoint 43">
       <r>  -0.5302  1.0000</r>
       <r>  -0.1114  1.0000</r>
       <r>   0.7890  1.0000</r>
       <r>   2.4852  1.0000</r>
       <r>   3.1391  1.0000</r>
       <r>   5.5392  0.1769</r>
       <r>  13.5979  0.0000</r>
       <r>  16.4343  0.0000</r>
       <r>  18.6552  0.0000</r>
      </set>
      <set comment="kpoint 44">
       <r>  -0.8979  1.0000</r>
       <r>  -0.1697  1.0000</r>
       <r>   1.2869  1.0000</r>
       <r>   2.1799  1.0000</r>
       <r>   3.6096  1.0000</r>
       <r>   4.9932  1.0000</r>
       <r>  13.2807  0.0000</r>
       <r>  18.1953  0.0000</r>
       <r>  18.9531  0.0000</r>
      </set>
      <set comment="kpoint 45">
       <r>  -0.6321  1.0000</r>
       <r>  -0.3341  1.0000</r>
       <r>   1.2767  1.0000</r>
       <r>   2.7502  1.0000</r>
       <r>   3.5300  1.0000</r>
       <r>   7.1149  0.0000</r>
       <r>  12.3767  0.0000</r>
       <r>  15.0607  0.0000</r>
       <r>  16.6662  0.0000</r>
      </set>
      <set comment="kpoint 46">
       <r>  -0.3639  1.0000</r>
       <r>   0.0912  1.0000</r>
       <r>   0.8173  1.0000</r>
       <r>   2.3366  1.0000</r>
       <r>   3.7909  1.0000</r>
       <r>   9.7213  0.0000</r>
       <r>  11.2427  0.0000</r>
       <r>  12.9442  0.0000</r>
       <r>  15.5021  0.0000</r>
      </set>
      <set comment="kpoint 47">
       <r>  -0.1911  1.0000</r>
       <r>   0.0837  1.0000</r>
       <r>   0.5979  1.0000</r>
       <r>   2.3675  1.0000</r>
       <r>   3.4967  1.0000</r>
       <r>   8.0629  0.0000</r>
       <r>  11.7084  0.0000</r>
       <r>  14.1476  0.0000</r>
       <r>  16.8730  0.0000</r>
      </set>
      <set comment="kpoint 48">
       <r>  -1.0214  1.0000</r>
       <r>  -0.5799  1.0000</r>
       <r>   2.2877  1.0000</r>
       <r>   2.9278  1.0000</r>
       <r>   3.6468  1.0000</r>
       <r>   8.5091  0.0000</r>
       <r>  10.7270  0.0000</r>
       <r>  13.8385  0.0000</r>
       <r>  17.3280  0.0000</r>
      </set>
      <set comment="kpoint 49">
       <r>  -0.7536  1.0000</r>
       <r>  -0.4449  1.0000</r>
       <r>   1.6988  1.0000</r>
       <r>   2.7495  1.0000</r>
       <r>   3.7933  1.0000</r>
       <r>   8.9651  0.0000</r>
       <r>  11.0114  0.0000</r>
       <r>  13.8644  0.0000</r>
       <r>  15.7619  0.0000</r>
      </set>
      <set comment="kpoint 50">
       <r>  -0.9424  1.0000</r>
       <r>  -0.4385  1.0000</r>
       <r>   1.8744  1.0000</r>
       <r>   2.6012  1.0000</r>
       <r>   3.6920  1.0000</r>
       <r>   6.6941  0.0000</r>
       <r>  11.9628  0.0000</r>
       <r>  15.6278  0.0000</r>
       <r>  17.8851  0.0000</r>
      </set>
      <set comment="kpoint 51">
       <r>  -1.8938  1.0000</r>
       <r>   1.0827  1.0000</r>
       <r>   1.0827  1.0000</r>
       <r>   1.3520  1.0000</r>
       <r>   2.8721  1.0000</r>
       <r>   2.8721  1.0000</r>
       <r>  14.2716  0.0000</r>
       <r>  21.3306  0.0000</r>
       <r>  24.9412  0.0000</r>
      </set>
      <set comment="kpoint 52">
       <r>  -1.3057  1.0000</r>
       <r>   0.8158  1.0000</r>
       <r>   1.2648  1.0000</r>
       <r>   1.3209  1.0000</r>
       <r>   2.7058  1.0000</r>
       <r>   4.2771  1.0000</r>
       <r>  12.9041  0.0000</r>
       <r>  19.7565  0.0000</r>
       <r>  22.1589  0.0000</r>
      </set>
      <set comment="kpoint 53">
       <r>  -0.3990  1.0000</r>
       <r>   0.4587  1.0000</r>
       <r>   0.8345  1.0000</r>
       <r>   1.8450  1.0000</r>
       <r>   2.7519  1.0000</r>
       <r>   6.2420  0.0000</r>
       <r>  12.4898  0.0000</r>
       <r>  15.1643  0.0000</r>
       <r>  22.4322  0.0000</r>
      </set>
      <set comment="kpoint 54">
       <r>  -0.6171  1.0000</r>
       <r>   0.1684  1.0000</r>
       <r>   1.2556  1.0000</r>
       <r>   2.3083  1.0000</r>
       <r>   3.2655  1.0000</r>
       <r>   8.4663  0.0000</r>
       <r>  10.7390  0.0000</r>
       <r>  13.5601  0.0000</r>
       <r>  19.5668  0.0000</r>
      </set>
      <set comment="kpoint 55">
       <r>  -1.3058  1.0000</r>
       <r>   0.7163  1.0000</r>
       <r>   1.2681  1.0000</r>
       <r>   1.5393  1.0000</r>
       <r>   3.5441  1.0000</r>
       <r>   4.5949  1.0000</r>
       <r>  11.2409  0.0000</r>
       <r>  20.6759  0.0000</r>
       <r>  21.6545  0.0000</r>
      </set>
      <set comment="kpoint 56">
       <r>  -0.6593  1.0000</r>
       <r>   0.3045  1.0000</r>
       <r>   1.1110  1.0000</r>
       <r>   1.8025  1.0000</r>
       <r>   3.3521  1.0000</r>
       <r>   6.7393  0.0000</r>
       <r>  10.3984  0.0000</r>
       <r>  17.6313  0.0000</r>
       <r>  19.2648  0.0000</r>
      </set>
      <set comment="kpoint 57">
       <r>  -0.3262  1.0000</r>
       <r>   0.1275  1.0000</r>
       <r>   0.8479  1.0000</r>
       <r>   2.2814  1.0000</r>
       <r>   3.4967  1.0000</r>
       <r>   8.8441  0.0000</r>
       <r>  10.9774  0.0000</r>
       <r>  13.5077  0.0000</r>
       <r>  17.3366  0.0000</r>
      </set>
      <set comment="kpoint 58">
       <r>  -0.7104  1.0000</r>
       <r>   0.2343  1.0000</r>
       <r>   1.2748  1.0000</r>
       <r>   1.9562  1.0000</r>
       <r>   3.4886  1.0000</r>
       <r>   8.4045  0.0000</r>
       <r>   9.0625  0.0000</r>
       <r>  16.1687  0.0000</r>
       <r>  19.8900  0.0000</r>
      </set>
      <set comment="kpoint 59">
       <r>  -1.6672  1.0000</r>
       <r>   0.8893  1.0000</r>
       <r>   0.8893  1.0000</r>
       <r>   3.4689  1.0000</r>
       <r>   3.4689  1.0000</r>
       <r>   3.8510  1.0000</r>
       <r>   9.6780  0.0000</r>
       <r>  20.3910  0.0000</r>
       <r>  23.3512  0.0000</r>
      </set>
      <set comment="kpoint 60">
       <r>  -1.2847  1.0000</r>
       <r>   0.6403  1.0000</r>
       <r>   1.1516  1.0000</r>
       <r>   2.2787  1.0000</r>
       <r>   3.4377  1.0000</r>
       <r>   6.2719  0.0000</r>
       <r>   8.7854  0.0000</r>
       <r>  19.8043  0.0000</r>
       <r>  21.5128  0.0000</r>
      </set>
     </set>
    </set>
   </array>
  </eigenvalues>
  <dos>
   <i name="efermi""      5.47360007</i>
   <total>
    <array>
     <dimension dim="1">gridpoints</dimension>
     <dimension dim="2">spin</dimension>
     <field>energy</field>
     <field>total</field>
     <field>integrated</field>
     <set>
      <set comment="spin 1">
       <r>  -5.4983   0.0000   0.0000 </r>
       <r>  -5.3896   0.0000   0.0000 </r>
       <r>  -5.2810   0.0000   0.0000 </r>
       <r>  -5.1723   0.0000   0.0000 </r>
       <r>  -5.0636   0.0000   0.0000 </r>
       <r>  -4.9549   0.0000   0.0000 </r>
       <r>  -4.8462   0.0000   0.0000 </r>
       <r>  -4.7375   0.0000   0.0000 </r>
       <r>  -4.6288   0.0000   0.0000 </r>
       <r>  -4.5202   0.0000   0.0000 </r>
       <r>  -4.4115   0.0000   0.0000 </r>
       <r>  -4.3028   0.0000   0.0000 </r>
       <r>  -4.1941   0.0004   0.0000 </r>
       <r>  -4.0854   0.0114   0.0013 </r>
       <r>  -3.9767   0.0394   0.0056 </r>
       <r>  -3.8680   0.0198   0.0077 </r>
       <r>  -3.7594   0.0197   0.0099 </r>
       <r>  -3.6507   0.1044   0.0212 </r>
       <r>  -3.5420   0.0835   0.0303 </r>
       <r>  -3.4333   0.0245   0.0329 </r>
       <r>  -3.3246   0.0992   0.0437 </r>
       <r>  -3.2159   0.0900   0.0535 </r>
       <r>  -3.1072   0.0324   0.0570 </r>
       <r>  -2.9986   0.1286   0.0710 </r>
       <r>  -2.8899   0.1218   0.0842 </r>
       <r>  -2.7812   0.0688   0.0917 </r>
       <r>  -2.6725   0.2272   0.1164 </r>
       <r>  -2.5638   0.1610   0.1339 </r>
       <r>  -2.4551   0.1202   0.1470 </r>
       <r>  -2.3464   0.0784   0.1555 </r>
       <r>  -2.2378   0.0427   0.1601 </r>
       <r>  -2.1291   0.2351   0.1857 </r>
       <r>  -2.0204   0.3074   0.2191 </r>
       <r>  -1.9117   0.2268   0.2438 </r>
       <r>  -1.8030   0.3364   0.2803 </r>
       <r>  -1.6943   0.2861   0.3114 </r>
       <r>  -1.5856   0.5221   0.3682 </r>
       <r>  -1.4770   0.6782   0.4419 </r>
       <r>  -1.3683   0.7820   0.5269 </r>
       <r>  -1.2596   0.9276   0.6277 </r>
       <r>  -1.1509   0.9880   0.7350 </r>
       <r>  -1.0422   1.6416   0.9135 </r>
       <r>  -0.9335   1.7761   1.1065 </r>
       <r>  -0.8248   1.6484   1.2857 </r>
       <r>  -0.7162   2.0540   1.5089 </r>
       <r>  -0.6075   1.9659   1.7226 </r>
       <r>  -0.4988   1.4851   1.8840 </r>
       <r>  -0.3901   1.6819   2.0668 </r>
       <r>  -0.2814   1.7128   2.2529 </r>
       <r>  -0.1727   1.3906   2.4041 </r>
       <r>  -0.0640   1.2476   2.5397 </r>
       <r>   0.0447   1.0889   2.6580 </r>
       <r>   0.1533   1.9372   2.8686 </r>
       <r>   0.2620   1.8796   3.0728 </r>
       <r>   0.3707   1.8656   3.2756 </r>
       <r>   0.4794   2.0084   3.4939 </r>
       <r>   0.5881   1.7096   3.6797 </r>
       <r>   0.6968   2.0571   3.9033 </r>
       <r>   0.8055   2.4174   4.1660 </r>
       <r>   0.9141   2.5720   4.4456 </r>
       <r>   1.0228   2.3809   4.7043 </r>
       <r>   1.1315   2.5631   4.9829 </r>
       <r>   1.2402   2.9716   5.3059 </r>
       <r>   1.3489   3.1823   5.6517 </r>
       <r>   1.4576   2.2162   5.8926 </r>
       <r>   1.5663   1.9407   6.1035 </r>
       <r>   1.6749   1.7166   6.2901 </r>
       <r>   1.7836   1.8086   6.4867 </r>
       <r>   1.8923   1.5966   6.6602 </r>
       <r>   2.0010   1.3224   6.8039 </r>
       <r>   2.1097   1.7305   6.9920 </r>
       <r>   2.2184   2.5674   7.2711 </r>
       <r>   2.3271   2.7716   7.5723 </r>
       <r>   2.4357   1.9164   7.7806 </r>
       <r>   2.5444   1.1873   7.9096 </r>
       <r>   2.6531   1.8607   8.1118 </r>
       <r>   2.7618   2.5392   8.3878 </r>
       <r>   2.8705   1.4963   8.5504 </r>
       <r>   2.9792   0.9039   8.6487 </r>
       <r>   3.0879   1.9060   8.8558 </r>
       <r>   3.1965   2.1988   9.0948 </r>
       <r>   3.3052   1.7173   9.2815 </r>
       <r>   3.4139   1.9451   9.4929 </r>
       <r>   3.5226   3.0569   9.8251 </r>
       <r>   3.6313   3.3207  10.1860 </r>
       <r>   3.7400   1.8238  10.3843 </r>
       <r>   3.8487   1.0882  10.5025 </r>
       <r>   3.9573   0.4236  10.5486 </r>
       <r>   4.0660   0.1446  10.5643 </r>
       <r>   4.1747   0.0690  10.5718 </r>
       <r>   4.2834   0.1458  10.5876 </r>
       <r>   4.3921   0.4953  10.6415 </r>
       <r>   4.5008   0.6711  10.7144 </r>
       <r>   4.6095   0.4471  10.7630 </r>
       <r>   4.7181   0.1564  10.7800 </r>
       <r>   4.8268   0.0137  10.7815 </r>
       <r>   4.9355   0.0533  10.7873 </r>
       <r>   5.0442   0.2092  10.8100 </r>
       <r>   5.1529   0.2296  10.8350 </r>
       <r>   5.2616   0.6006  10.9002 </r>
       <r>   5.3703   0.7110  10.9775 </r>
       <r>   5.4789   0.2166  11.0011 </r>
       <r>   5.5876   0.2437  11.0275 </r>
       <r>   5.6963   0.1227  11.0409 </r>
       <r>   5.8050   0.1836  11.0608 </r>
       <r>   5.9137   0.2178  11.0845 </r>
       <r>   6.0224   0.1986  11.1061 </r>
       <r>   6.1311   0.2265  11.1307 </r>
       <r>   6.2397   0.2154  11.1541 </r>
       <r>   6.3484   0.3988  11.1975 </r>
       <r>   6.4571   0.3796  11.2387 </r>
       <r>   6.5658   0.2807  11.2692 </r>
       <r>   6.6745   0.2856  11.3003 </r>
       <r>   6.7832   0.4574  11.3500 </r>
       <r>   6.8919   0.1838  11.3700 </r>
       <r>   7.0006   0.2312  11.3951 </r>
       <r>   7.1092   0.3547  11.4336 </r>
       <r>   7.2179   0.2203  11.4576 </r>
       <r>   7.3266   0.0669  11.4649 </r>
       <r>   7.4353   0.2102  11.4877 </r>
       <r>   7.5440   0.2376  11.5135 </r>
       <r>   7.6527   0.3332  11.5497 </r>
       <r>   7.7614   0.5107  11.6052 </r>
       <r>   7.8700   0.3480  11.6431 </r>
       <r>   7.9787   0.0988  11.6538 </r>
       <r>   8.0874   0.2247  11.6782 </r>
       <r>   8.1961   0.1448  11.6940 </r>
       <r>   8.3048   0.0328  11.6975 </r>
       <r>   8.4135   0.1941  11.7186 </r>
       <r>   8.5222   0.5026  11.7732 </r>
       <r>   8.6308   0.3505  11.8113 </r>
       <r>   8.7395   0.3271  11.8469 </r>
       <r>   8.8482   0.6634  11.9190 </r>
       <r>   8.9569   0.4956  11.9728 </r>
       <r>   9.0656   0.3276  12.0085 </r>
       <r>   9.1743   0.1397  12.0236 </r>
       <r>   9.2830   0.2384  12.0495 </r>
       <r>   9.3916   0.4734  12.1010 </r>
       <r>   9.5003   0.1637  12.1188 </r>
       <r>   9.6090   0.2124  12.1419 </r>
       <r>   9.7177   0.4748  12.1935 </r>
       <r>   9.8264   0.4724  12.2448 </r>
       <r>   9.9351   0.2184  12.2686 </r>
       <r>  10.0438   0.1365  12.2834 </r>
       <r>  10.1524   0.1235  12.2968 </r>
       <r>  10.2611   0.2838  12.3277 </r>
       <r>  10.3698   0.3678  12.3676 </r>
       <r>  10.4785   0.2973  12.4000 </r>
       <r>  10.5872   0.1228  12.4133 </r>
       <r>  10.6959   0.3523  12.4516 </r>
       <r>  10.8046   0.3712  12.4919 </r>
       <r>  10.9132   0.1863  12.5122 </r>
       <r>  11.0219   0.4661  12.5628 </r>
       <r>  11.1306   0.4218  12.6087 </r>
       <r>  11.2393   0.4509  12.6577 </r>
       <r>  11.3480   0.5362  12.7160 </r>
       <r>  11.4567   0.2126  12.7391 </r>
       <r>  11.5654   0.3774  12.7801 </r>
       <r>  11.6740   0.7826  12.8652 </r>
       <r>  11.7827   0.6175  12.9323 </r>
       <r>  11.8914   0.1503  12.9486 </r>
       <r>  12.0001   0.1209  12.9617 </r>
       <r>  12.1088   0.0603  12.9683 </r>
       <r>  12.2175   0.0094  12.9693 </r>
       <r>  12.3262   0.1014  12.9803 </r>
       <r>  12.4348   0.3441  13.0177 </r>
       <r>  12.5435   0.4429  13.0659 </r>
       <r>  12.6522   0.2524  13.0933 </r>
       <r>  12.7609   0.1301  13.1074 </r>
       <r>  12.8696   0.1593  13.1247 </r>
       <r>  12.9783   0.4899  13.1780 </r>
       <r>  13.0870   0.4085  13.2224 </r>
       <r>  13.1956   0.2703  13.2518 </r>
       <r>  13.3043   0.3153  13.2860 </r>
       <r>  13.4130   0.2727  13.3157 </r>
       <r>  13.5217   0.7068  13.3925 </r>
       <r>  13.6304   0.8108  13.4806 </r>
       <r>  13.7391   0.2765  13.5107 </r>
       <r>  13.8478   0.3417  13.5478 </r>
       <r>  13.9564   0.4169  13.5931 </r>
       <r>  14.0651   0.1613  13.6106 </r>
       <r>  14.1738   0.4340  13.6578 </r>
       <r>  14.2825   0.3541  13.6963 </r>
       <r>  14.3912   0.1292  13.7103 </r>
       <r>  14.4999   0.2410  13.7365 </r>
       <r>  14.6086   0.1729  13.7553 </r>
       <r>  14.7173   0.3337  13.7916 </r>
       <r>  14.8259   0.4149  13.8367 </r>
       <r>  14.9346   0.4557  13.8862 </r>
       <r>  15.0433   0.5585  13.9469 </r>
       <r>  15.1520   0.4619  13.9971 </r>
       <r>  15.2607   0.3863  14.0391 </r>
       <r>  15.3694   0.1715  14.0577 </r>
       <r>  15.4781   0.2668  14.0867 </r>
       <r>  15.5867   0.3743  14.1274 </r>
       <r>  15.6954   0.4810  14.1797 </r>
       <r>  15.8041   0.7629  14.2626 </r>
       <r>  15.9128   0.4331  14.3097 </r>
       <r>  16.0215   0.4878  14.3627 </r>
       <r>  16.1302   0.5773  14.4254 </r>
       <r>  16.2389   0.5239  14.4824 </r>
       <r>  16.3475   0.5535  14.5425 </r>
       <r>  16.4562   0.7122  14.6199 </r>
       <r>  16.5649   0.5931  14.6844 </r>
       <r>  16.6736   0.5490  14.7441 </r>
       <r>  16.7823   0.7568  14.8263 </r>
       <r>  16.8910   0.6521  14.8972 </r>
       <r>  16.9997   0.2104  14.9201 </r>
       <r>  17.1083   0.0170  14.9219 </r>
       <r>  17.2170   0.0320  14.9254 </r>
       <r>  17.3257   0.2751  14.9553 </r>
       <r>  17.4344   0.4500  15.0042 </r>
       <r>  17.5431   0.3535  15.0426 </r>
       <r>  17.6518   0.5387  15.1012 </r>
       <r>  17.7605   0.9981  15.2096 </r>
       <r>  17.8691   0.9984  15.3182 </r>
       <r>  17.9778   0.5428  15.3771 </r>
       <r>  18.0865   0.5021  15.4317 </r>
       <r>  18.1952   0.5562  15.4922 </r>
       <r>  18.3039   0.5914  15.5565 </r>
       <r>  18.4126   0.4792  15.6085 </r>
       <r>  18.5213   0.1612  15.6261 </r>
       <r>  18.6299   0.2661  15.6550 </r>
       <r>  18.7386   0.4956  15.7088 </r>
       <r>  18.8473   0.2552  15.7366 </r>
       <r>  18.9560   0.2331  15.7619 </r>
       <r>  19.0647   0.5582  15.8226 </r>
       <r>  19.1734   0.7833  15.9077 </r>
       <r>  19.2821   0.7925  15.9939 </r>
       <r>  19.3907   0.5826  16.0572 </r>
       <r>  19.4994   0.3673  16.0971 </r>
       <r>  19.6081   0.2513  16.1244 </r>
       <r>  19.7168   0.3043  16.1575 </r>
       <r>  19.8255   0.6659  16.2299 </r>
       <r>  19.9342   0.9318  16.3311 </r>
       <r>  20.0429   0.4503  16.3801 </r>
       <r>  20.1515   0.2087  16.4028 </r>
       <r>  20.2602   0.2576  16.4308 </r>
       <r>  20.3689   0.4159  16.4760 </r>
       <r>  20.4776   0.6532  16.5470 </r>
       <r>  20.5863   0.6270  16.6151 </r>
       <r>  20.6950   0.6332  16.6839 </r>
       <r>  20.8037   0.7051  16.7605 </r>
       <r>  20.9123   0.7864  16.8460 </r>
       <r>  21.0210   0.6330  16.9148 </r>
       <r>  21.1297   0.4655  16.9654 </r>
       <r>  21.2384   0.3002  16.9980 </r>
       <r>  21.3471   0.4900  17.0513 </r>
       <r>  21.4558   0.7279  17.1304 </r>
       <r>  21.5645   0.9270  17.2312 </r>
       <r>  21.6732   0.5048  17.2860 </r>
       <r>  21.7818   0.2139  17.3093 </r>
       <r>  21.8905   0.2589  17.3374 </r>
       <r>  21.9992   0.3427  17.3747 </r>
       <r>  22.1079   0.2790  17.4050 </r>
       <r>  22.2166   0.3432  17.4423 </r>
       <r>  22.3253   0.2359  17.4679 </r>
       <r>  22.4340   0.2870  17.4991 </r>
       <r>  22.5426   0.6957  17.5747 </r>
       <r>  22.6513   0.4649  17.6253 </r>
       <r>  22.7600   0.1160  17.6379 </r>
       <r>  22.8687   0.1468  17.6538 </r>
       <r>  22.9774   0.3274  17.6894 </r>
       <r>  23.0861   0.5120  17.7450 </r>
       <r>  23.1948   0.2951  17.7771 </r>
       <r>  23.3034   0.1706  17.7957 </r>
       <r>  23.4121   0.0683  17.8031 </r>
       <r>  23.5208   0.0142  17.8046 </r>
       <r>  23.6295   0.0038  17.8050 </r>
       <r>  23.7382   0.0492  17.8104 </r>
       <r>  23.8469   0.2575  17.8384 </r>
       <r>  23.9556   0.3381  17.8751 </r>
       <r>  24.0642   0.1493  17.8913 </r>
       <r>  24.1729   0.2453  17.9180 </r>
       <r>  24.2816   0.1967  17.9394 </r>
       <r>  24.3903   0.1902  17.9601 </r>
       <r>  24.4990   0.1289  17.9741 </r>
       <r>  24.6077   0.0224  17.9765 </r>
       <r>  24.7164   0.0012  17.9766 </r>
       <r>  24.8250   0.0172  17.9785 </r>
       <r>  24.9337   0.0693  17.9860 </r>
       <r>  25.0424   0.0502  17.9915 </r>
       <r>  25.1511   0.0063  17.9922 </r>
       <r>  25.2598   0.0001  17.9922 </r>
       <r>  25.3685   0.0000  17.9922 </r>
       <r>  25.4772   0.0013  17.9923 </r>
       <r>  25.5858   0.0194  17.9944 </r>
       <r>  25.6945   0.0394  17.9987 </r>
       <r>  25.8032   0.0114  18.0000 </r>
       <r>  25.9119   0.0004  18.0000 </r>
       <r>  26.0206   0.0000  18.0000 </r>
       <r>  26.1293   0.0000  18.0000 </r>
       <r>  26.2380   0.0000  18.0000 </r>
       <r>  26.3466   0.0000  18.0000 </r>
       <r>  26.4553   0.0000  18.0000 </r>
       <r>  26.5640   0.0000  18.0000 </r>
       <r>  26.6727   0.0000  18.0000 </r>
       <r>  26.7814   0.0000  18.0000 </r>
       <r>  26.8901   0.0000  18.0000 </r>
       <r>  26.9988   0.0000  18.0000 </r>
       <r>  27.1074   0.0000  18.0000 </r>
      </set>
     </set>
    </array>
   </total>
   <partial>
    <array>
     <dimension dim="1">gridpoints</dimension>
     <dimension dim="2">spin</dimension>
     <dimension dim="3">ion</dimension>
     <field>energy</field>
     <field>  s</field>
     <field> py</field>
     <field> pz</field>
     <field> px</field>
     <field>dxy</field>
     <field>dyz</field>
     <field>dz2</field>
     <field>dxz</field>
     <field>dx2</field>
     <set>
      <set comment="ion 1">
       <set comment="spin 1">
        <r>  -5.4983   0.0000   0.0000   0.0000   0.0000   0.0000   0.0000   0.0000   0.0000   0.0000 </r>
        <r>  -5.3896   0.0000   0.0000   0.0000   0.0000   0.0000   0.0000   0.0000   0.0000   0.0000 </r>
        <r>  -5.2810   0.0000   0.0000   0.0000   0.0000   0.0000   0.0000   0.0000   0.0000   0.0000 </r>
        <r>  -5.1723   0.0000   0.0000   0.0000   0.0000   0.0000   0.0000   0.0000   0.0000   0.0000 </r>
        <r>  -5.0636   0.0000   0.0000   0.0000   0.0000   0.0000   0.0000   0.0000   0.0000   0.0000 </r>
        <r>  -4.9549   0.0000   0.0000   0.0000   0.0000   0.0000   0.0000   0.0000   0.0000   0.0000 </r>
        <r>  -4.8462   0.0000   0.0000   0.0000   0.0000   0.0000   0.0000   0.0000   0.0000   0.0000 </r>
        <r>  -4.7375   0.0000   0.0000   0.0000   0.0000   0.0000   0.0000   0.0000   0.0000   0.0000 </r>
        <r>  -4.6288   0.0000   0.0000   0.0000   0.0000   0.0000   0.0000   0.0000   0.0000   0.0000 </r>
        <r>  -4.5202   0.0000   0.0000   0.0000   0.0000   0.0000   0.0000   0.0000   0.0000   0.0000 </r>
        <r>  -4.4115   0.0000   0.0000   0.0000   0.0000   0.0000   0.0000   0.0000   0.0000   0.0000 </r>
        <r>  -4.3028   0.0000   0.0000   0.0000   0.0000   0.0000   0.0000   0.0000   0.0000   0.0000 </r>
        <r>  -4.1941   0.0003   0.0000   0.0000   0.0000   0.0000   0.0000   0.0000   0.0000   0.0000 </r>
        <r>  -4.0854   0.0068   0.0000   0.0000   0.0000   0.0000   0.0000   0.0000   0.0000   0.0000 </r>
        <r>  -3.9767   0.0237   0.0001   0.0001   0.0001   0.0000   0.0000   0.0000   0.0000   0.0000 </r>
        <r>  -3.8680   0.0119   0.0000   0.0000   0.0000   0.0000   0.0000   0.0000   0.0000   0.0000 </r>
        <r>  -3.7594   0.0115   0.0000   0.0000   0.0003   0.0000   0.0000   0.0000   0.0000   0.0000 </r>
        <r>  -3.6507   0.0610   0.0002   0.0002   0.0017   0.0001   0.0000   0.0000   0.0001   0.0001 </r>
        <r>  -3.5420   0.0488   0.0002   0.0002   0.0014   0.0001   0.0000   0.0000   0.0001   0.0001 </r>
        <r>  -3.4333   0.0141   0.0003   0.0003   0.0002   0.0000   0.0001   0.0000   0.0000   0.0000 </r>
        <r>  -3.3246   0.0562   0.0015   0.0015   0.0002   0.0001   0.0007   0.0000   0.0001   0.0001 </r>
        <r>  -3.2159   0.0511   0.0014   0.0014   0.0001   0.0001   0.0006   0.0000   0.0001   0.0000 </r>
        <r>  -3.1072   0.0180   0.0003   0.0008   0.0002   0.0001   0.0002   0.0001   0.0001   0.0000 </r>
        <r>  -2.9986   0.0704   0.0007   0.0045   0.0007   0.0004   0.0006   0.0009   0.0006   0.0000 </r>
        <r>  -2.8899   0.0666   0.0005   0.0046   0.0005   0.0003   0.0004   0.0010   0.0004   0.0000 </r>
        <r>  -2.7812   0.0367   0.0007   0.0008   0.0022   0.0011   0.0002   0.0003   0.0002   0.0002 </r>
        <r>  -2.6725   0.1199   0.0030   0.0003   0.0092   0.0046   0.0005   0.0007   0.0007   0.0009 </r>
        <r>  -2.5638   0.0843   0.0021   0.0004   0.0064   0.0034   0.0007   0.0005   0.0010   0.0006 </r>
        <r>  -2.4551   0.0600   0.0013   0.0011   0.0043   0.0033   0.0021   0.0001   0.0031   0.0004 </r>
        <r>  -2.3464   0.0389   0.0008   0.0008   0.0027   0.0022   0.0015   0.0001   0.0022   0.0002 </r>
        <r>  -2.2378   0.0205   0.0010   0.0016   0.0003   0.0005   0.0017   0.0006   0.0005   0.0001 </r>
        <r>  -2.1291   0.1106   0.0049   0.0110   0.0004   0.0027   0.0100   0.0056   0.0030   0.0005 </r>
        <r>  -2.0204   0.1405   0.0057   0.0137   0.0008   0.0068   0.0144   0.0072   0.0072   0.0004 </r>
        <r>  -1.9117   0.0992   0.0031   0.0116   0.0007   0.0064   0.0120   0.0072   0.0064   0.0001 </r>
        <r>  -1.8030   0.1449   0.0034   0.0198   0.0010   0.0092   0.0169   0.0133   0.0092   0.0000 </r>
        <r>  -1.6943   0.1038   0.0019   0.0114   0.0021   0.0228   0.0255   0.0070   0.0222   0.0002 </r>
        <r>  -1.5856   0.1423   0.0034   0.0032   0.0089   0.0778   0.0780   0.0022   0.0700   0.0015 </r>
        <r>  -1.4770   0.1945   0.0072   0.0020   0.0174   0.0997   0.0860   0.0104   0.0742   0.0034 </r>
        <r>  -1.3683   0.2025   0.0077   0.0087   0.0171   0.1018   0.0821   0.0863   0.0632   0.0036 </r>
        <r>  -1.2596   0.1802   0.0047   0.0157   0.0066   0.1159   0.1162   0.1787   0.0871   0.0022 </r>
        <r>  -1.1509   0.1693   0.0043   0.0230   0.0059   0.1075   0.0807   0.3028   0.0502   0.0087 </r>
        <r>  -1.0422   0.2464   0.0070   0.0347   0.0104   0.3119   0.1387   0.4350   0.0755   0.0128 </r>
        <r>  -0.9335   0.2183   0.0099   0.0256   0.0111   0.4628   0.1908   0.3930   0.0900   0.0087 </r>
        <r>  -0.8248   0.1725   0.0104   0.0277   0.0079   0.5521   0.1398   0.3500   0.0561   0.0052 </r>
        <r>  -0.7162   0.1650   0.0121   0.0298   0.0088   0.7938   0.1259   0.4761   0.0524   0.0093 </r>
        <r>  -0.6075   0.1299   0.0107   0.0193   0.0142   0.7627   0.1795   0.4038   0.0600   0.0405 </r>
        <r>  -0.4988   0.1069   0.0134   0.0083   0.0254   0.5562   0.1785   0.2103   0.0381   0.0796 </r>
        <r>  -0.3901   0.0860   0.0174   0.0069   0.0277   0.6732   0.2138   0.2563   0.0276   0.0871 </r>
        <r>  -0.2814   0.0549   0.0179   0.0075   0.0185   0.6001   0.2390   0.3581   0.0220   0.1194 </r>
        <r>  -0.1727   0.0341   0.0200   0.0101   0.0175   0.4911   0.1628   0.2991   0.0205   0.1079 </r>
        <r>  -0.0640   0.0306   0.0204   0.0140   0.0180   0.3732   0.2080   0.2676   0.0232   0.0835 </r>
        <r>   0.0447   0.0126   0.0152   0.0125   0.0161   0.4038   0.1753   0.2062   0.0229   0.0557 </r>
        <r>   0.1533   0.0205   0.0269   0.0277   0.0254   0.6816   0.3458   0.3286   0.0513   0.1344 </r>
        <r>   0.2620   0.0156   0.0340   0.0203   0.0212   0.3363   0.3554   0.5884   0.0714   0.1469 </r>
        <r>   0.3707   0.0162   0.0291   0.0159   0.0210   0.2782   0.3859   0.5879   0.1464   0.1134 </r>
        <r>   0.4794   0.0223   0.0170   0.0223   0.0230   0.4789   0.4474   0.3269   0.2330   0.1708 </r>
        <r>   0.5881   0.0228   0.0156   0.0154   0.0234   0.3820   0.3435   0.3700   0.1398   0.1708 </r>
        <r>   0.6968   0.0296   0.0210   0.0132   0.0258   0.3885   0.4031   0.5929   0.1404   0.1794 </r>
        <r>   0.8055   0.0524   0.0174   0.0347   0.0355   0.5019   0.6364   0.4473   0.1766   0.2044 </r>
        <r>   0.9141   0.0512   0.0162   0.0521   0.0442   0.6078   0.6961   0.2660   0.2108   0.2950 </r>
        <r>   1.0228   0.0359   0.0146   0.0332   0.0268   0.5558   0.4367   0.4296   0.2301   0.3436 </r>
        <r>   1.1315   0.0284   0.0141   0.0235   0.0160   0.5220   0.4358   0.5876   0.3693   0.3075 </r>
        <r>   1.2402   0.0352   0.0180   0.0440   0.0211   0.5330   0.6736   0.4959   0.4702   0.3733 </r>
        <r>   1.3489   0.0574   0.0264   0.0764   0.0342   0.5089   0.7466   0.3284   0.6297   0.4031 </r>
        <r>   1.4576   0.0394   0.0172   0.0410   0.0231   0.2228   0.4883   0.2707   0.5583   0.3132 </r>
        <r>   1.5663   0.0498   0.0158   0.0527   0.0189   0.1729   0.4436   0.3334   0.3425   0.2833 </r>
        <r>   1.6749   0.0349   0.0137   0.0511   0.0146   0.1219   0.4153   0.2340   0.3213   0.3133 </r>
        <r>   1.7836   0.0169   0.0147   0.0399   0.0161   0.1363   0.3669   0.1758   0.4161   0.4416 </r>
        <r>   1.8923   0.0106   0.0107   0.0275   0.0127   0.1242   0.1943   0.2512   0.3173   0.4985 </r>
        <r>   2.0010   0.0094   0.0038   0.0131   0.0056   0.0493   0.0947   0.2605   0.2332   0.5501 </r>
        <r>   2.1097   0.0129   0.0044   0.0135   0.0089   0.0494   0.1385   0.2630   0.3149   0.7978 </r>
        <r>   2.2184   0.0309   0.0147   0.0441   0.0186   0.0875   0.3771   0.3982   0.4559   0.9208 </r>
        <r>   2.3271   0.0443   0.0209   0.0584   0.0223   0.1151   0.3861   0.5135   0.4168   0.9397 </r>
        <r>   2.4357   0.0274   0.0136   0.0261   0.0176   0.0795   0.1219   0.4612   0.2281   0.7800 </r>
        <r>   2.5444   0.0088   0.0053   0.0068   0.0099   0.0304   0.0617   0.2731   0.2028   0.5103 </r>
        <r>   2.6531   0.0130   0.0044   0.0195   0.0074   0.0601   0.2194   0.2078   0.4802   0.7361 </r>
        <r>   2.7618   0.0251   0.0065   0.0351   0.0079   0.1562   0.3140   0.3820   0.5782   0.8763 </r>
        <r>   2.8705   0.0147   0.0048   0.0159   0.0045   0.0909   0.1480   0.1904   0.2969   0.6426 </r>
        <r>   2.9792   0.0048   0.0053   0.0075   0.0050   0.0341   0.1345   0.0612   0.1792   0.4217 </r>
        <r>   3.0879   0.0102   0.0063   0.0156   0.0070   0.0764   0.2931   0.1009   0.6161   0.6877 </r>
        <r>   3.1965   0.0118   0.0041   0.0158   0.0052   0.1289   0.2594   0.1481   0.7329   0.7964 </r>
        <r>   3.3052   0.0101   0.0031   0.0090   0.0062   0.1570   0.1253   0.1338   0.5836   0.6190 </r>
        <r>   3.4139   0.0092   0.0023   0.0055   0.0058   0.1812   0.1677   0.1690   0.7866   0.5505 </r>
        <r>   3.5226   0.0182   0.0034   0.0106   0.0069   0.2624   0.3560   0.2392   1.4725   0.5894 </r>
        <r>   3.6313   0.0501   0.0073   0.0238   0.0130   0.2873   0.5431   0.2770   1.4313   0.5584 </r>
        <r>   3.7400   0.0398   0.0063   0.0129   0.0117   0.1855   0.3125   0.1772   0.7382   0.2624 </r>
        <r>   3.8487   0.0096   0.0050   0.0053   0.0065   0.0395   0.1260   0.0336   0.7793   0.0448 </r>
        <r>   3.9573   0.0060   0.0056   0.0057   0.0052   0.0032   0.0629   0.0038   0.2926   0.0137 </r>
        <r>   4.0660   0.0089   0.0052   0.0052   0.0033   0.0006   0.0529   0.0083   0.0164   0.0253 </r>
        <r>   4.1747   0.0052   0.0025   0.0025   0.0013   0.0002   0.0289   0.0049   0.0003   0.0146 </r>
        <r>   4.2834   0.0138   0.0036   0.0046   0.0010   0.0003   0.0647   0.0128   0.0007   0.0298 </r>
        <r>   4.3921   0.0520   0.0102   0.0201   0.0027   0.0019   0.2174   0.0536   0.0052   0.0814 </r>
        <r>   4.5008   0.0757   0.0121   0.0348   0.0033   0.0027   0.2872   0.0782   0.0117   0.0906 </r>
        <r>   4.6095   0.0560   0.0081   0.0352   0.0044   0.0032   0.1613   0.0601   0.0251   0.0294 </r>
        <r>   4.7181   0.0195   0.0036   0.0134   0.0029   0.0021   0.0448   0.0241   0.0160   0.0044 </r>
        <r>   4.8268   0.0017   0.0004   0.0012   0.0003   0.0002   0.0031   0.0022   0.0020   0.0002 </r>
        <r>   4.9355   0.0084   0.0006   0.0074   0.0006   0.0002   0.0093   0.0073   0.0093   0.0000 </r>
        <r>   5.0442   0.0335   0.0018   0.0356   0.0019   0.0008   0.0318   0.0266   0.0318   0.0001 </r>
        <r>   5.1529   0.0314   0.0071   0.0365   0.0087   0.0173   0.0207   0.0261   0.0213   0.0035 </r>
        <r>   5.2616   0.0695   0.0352   0.0314   0.0481   0.1647   0.0092   0.0824   0.0128   0.0167 </r>
        <r>   5.3703   0.0949   0.0348   0.0227   0.0512   0.2340   0.0051   0.1130   0.0090   0.0139 </r>
        <r>   5.4789   0.0346   0.0071   0.0033   0.0167   0.0789   0.0006   0.0332   0.0019   0.0046 </r>
        <r>   5.5876   0.0451   0.0041   0.0005   0.0234   0.0919   0.0002   0.0303   0.0021   0.0079 </r>
        <r>   5.6963   0.0225   0.0022   0.0026   0.0101   0.0381   0.0061   0.0153   0.0024   0.0036 </r>
        <r>   5.8050   0.0323   0.0044   0.0197   0.0034   0.0027   0.0488   0.0234   0.0127   0.0028 </r>
        <r>   5.9137   0.0383   0.0049   0.0259   0.0032   0.0007   0.0592   0.0272   0.0147   0.0030 </r>
        <r>   6.0224   0.0349   0.0018   0.0385   0.0007   0.0001   0.0501   0.0201   0.0070   0.0012 </r>
        <r>   6.1311   0.0402   0.0025   0.0449   0.0008   0.0001   0.0571   0.0207   0.0060   0.0025 </r>
        <r>   6.2397   0.0366   0.0131   0.0205   0.0087   0.0018   0.0559   0.0092   0.0029   0.0170 </r>
        <r>   6.3484   0.0628   0.0274   0.0282   0.0259   0.0129   0.0841   0.0134   0.0130   0.0376 </r>
        <r>   6.4571   0.0743   0.0185   0.0272   0.0187   0.0138   0.0856   0.0187   0.0144   0.0282 </r>
        <r>   6.5658   0.0669   0.0081   0.0279   0.0031   0.0021   0.0819   0.0206   0.0046   0.0109 </r>
        <r>   6.6745   0.0487   0.0051   0.0635   0.0025   0.0001   0.0518   0.0209   0.0168   0.0037 </r>
        <r>   6.7832   0.0771   0.0105   0.0955   0.0065   0.0002   0.0834   0.0357   0.0272   0.0059 </r>
        <r>   6.8919   0.0298   0.0074   0.0299   0.0057   0.0010   0.0367   0.0167   0.0081   0.0031 </r>
        <r>   7.0006   0.0169   0.0186   0.0339   0.0187   0.0055   0.0336   0.0274   0.0064   0.0030 </r>
        <r>   7.1092   0.0505   0.0177   0.0568   0.0164   0.0048   0.0686   0.0378   0.0073   0.0031 </r>
        <r>   7.2179   0.0474   0.0040   0.0381   0.0023   0.0008   0.0535   0.0205   0.0031   0.0010 </r>
        <r>   7.3266   0.0196   0.0018   0.0056   0.0028   0.0090   0.0079   0.0044   0.0005   0.0004 </r>
        <r>   7.4353   0.0726   0.0086   0.0011   0.0159   0.0518   0.0007   0.0096   0.0008   0.0017 </r>
        <r>   7.5440   0.0743   0.0079   0.0125   0.0135   0.0421   0.0131   0.0138   0.0057   0.0015 </r>
        <r>   7.6527   0.0702   0.0053   0.0644   0.0053   0.0082   0.0549   0.0257   0.0197   0.0005 </r>
        <r>   7.7614   0.0844   0.0122   0.1161   0.0172   0.0338   0.0610   0.0277   0.0159   0.0017 </r>
        <r>   7.8700   0.0644   0.0141   0.0573   0.0219   0.0458   0.0221   0.0175   0.0057   0.0023 </r>
        <r>   7.9787   0.0272   0.0034   0.0050   0.0106   0.0190   0.0015   0.0038   0.0010   0.0027 </r>
        <r>   8.0874   0.0753   0.0035   0.0003   0.0299   0.0475   0.0001   0.0049   0.0017   0.0106 </r>
        <r>   8.1961   0.0486   0.0023   0.0002   0.0192   0.0305   0.0001   0.0032   0.0011   0.0068 </r>
        <r>   8.3048   0.0096   0.0007   0.0029   0.0021   0.0028   0.0025   0.0018   0.0022   0.0006 </r>
        <r>   8.4135   0.0577   0.0053   0.0246   0.0055   0.0049   0.0222   0.0104   0.0161   0.0014 </r>
        <r>   8.5222   0.1573   0.0115   0.0561   0.0236   0.0329   0.0431   0.0147   0.0326   0.0090 </r>
        <r>   8.6308   0.1124   0.0059   0.0331   0.0218   0.0351   0.0218   0.0068   0.0232   0.0086 </r>
        <r>   8.7395   0.1429   0.0049   0.0078   0.0093   0.0381   0.0304   0.0020   0.0303   0.0021 </r>
        <r>   8.8482   0.2957   0.0111   0.0253   0.0140   0.0606   0.0681   0.0073   0.0480   0.0026 </r>
        <r>   8.9569   0.1772   0.0073   0.0686   0.0057   0.0202   0.0667   0.0133   0.0161   0.0013 </r>
        <r>   9.0656   0.0771   0.0098   0.0674   0.0092   0.0155   0.0408   0.0125   0.0032   0.0003 </r>
        <r>   9.1743   0.0368   0.0089   0.0163   0.0089   0.0142   0.0078   0.0049   0.0015   0.0001 </r>
        <r>   9.2830   0.0865   0.0058   0.0275   0.0061   0.0068   0.0230   0.0113   0.0131   0.0005 </r>
        <r>   9.3916   0.1687   0.0109   0.0567   0.0110   0.0094   0.0493   0.0241   0.0285   0.0009 </r>
        <r>   9.5003   0.0528   0.0052   0.0204   0.0052   0.0027   0.0180   0.0091   0.0092   0.0004 </r>
        <r>   9.6090   0.0450   0.0138   0.0290   0.0152   0.0028   0.0258   0.0128   0.0033   0.0020 </r>
        <r>   9.7177   0.1558   0.0197   0.0523   0.0219   0.0107   0.0505   0.0212   0.0110   0.0062 </r>
        <r>   9.8264   0.1902   0.0139   0.0384   0.0127   0.0186   0.0481   0.0114   0.0232   0.0053 </r>
        <r>   9.9351   0.0803   0.0101   0.0156   0.0068   0.0113   0.0246   0.0025   0.0150   0.0012 </r>
        <r>  10.0438   0.0441   0.0102   0.0111   0.0052   0.0056   0.0164   0.0005   0.0059   0.0010 </r>
        <r>  10.1524   0.0242   0.0077   0.0230   0.0069   0.0058   0.0118   0.0010   0.0041   0.0008 </r>
        <r>  10.2611   0.0369   0.0146   0.0658   0.0213   0.0168   0.0196   0.0035   0.0102   0.0028 </r>
        <r>  10.3698   0.0815   0.0206   0.0429   0.0371   0.0318   0.0123   0.0051   0.0208   0.0088 </r>
        <r>  10.4785   0.0803   0.0186   0.0162   0.0342   0.0311   0.0040   0.0046   0.0172   0.0086 </r>
        <r>  10.5872   0.0339   0.0090   0.0077   0.0143   0.0121   0.0007   0.0017   0.0038   0.0024 </r>
        <r>  10.6959   0.0983   0.0249   0.0253   0.0448   0.0294   0.0007   0.0052   0.0074   0.0053 </r>
        <r>  10.8046   0.0994   0.0209   0.0248   0.0552   0.0287   0.0012   0.0071   0.0132   0.0082 </r>
        <r>  10.9132   0.0388   0.0077   0.0144   0.0344   0.0160   0.0024   0.0049   0.0062   0.0067 </r>
        <r>  11.0219   0.1129   0.0164   0.0450   0.0713   0.0360   0.0102   0.0132   0.0094   0.0167 </r>
        <r>  11.1306   0.1217   0.0167   0.0442   0.0438   0.0280   0.0165   0.0089   0.0135   0.0104 </r>
        <r>  11.2393   0.1147   0.0197   0.0698   0.0313   0.0256   0.0315   0.0102   0.0132   0.0070 </r>
        <r>  11.3480   0.1814   0.0174   0.0777   0.0258   0.0194   0.0279   0.0289   0.0067   0.0071 </r>
        <r>  11.4567   0.0874   0.0072   0.0229   0.0072   0.0045   0.0085   0.0160   0.0041   0.0014 </r>
        <r>  11.5654   0.1076   0.0230   0.0431   0.0209   0.0080   0.0268   0.0252   0.0197   0.0002 </r>
        <r>  11.6740   0.2107   0.0485   0.0933   0.0539   0.0178   0.0457   0.0617   0.0298   0.0012 </r>
        <r>  11.7827   0.1513   0.0449   0.0689   0.0570   0.0209   0.0310   0.0383   0.0169   0.0018 </r>
        <r>  11.8914   0.0376   0.0122   0.0159   0.0153   0.0062   0.0059   0.0060   0.0028   0.0004 </r>
        <r>  12.0001   0.0377   0.0111   0.0122   0.0112   0.0063   0.0005   0.0002   0.0004   0.0000 </r>
        <r>  12.1088   0.0190   0.0056   0.0061   0.0056   0.0032   0.0002   0.0000   0.0002   0.0000 </r>
        <r>  12.2175   0.0030   0.0008   0.0011   0.0007   0.0004   0.0000   0.0000   0.0000   0.0002 </r>
        <r>  12.3262   0.0322   0.0085   0.0133   0.0065   0.0032   0.0001   0.0001   0.0006   0.0035 </r>
        <r>  12.4348   0.1010   0.0291   0.0406   0.0262   0.0130   0.0005   0.0020   0.0050   0.0147 </r>
        <r>  12.5435   0.1095   0.0386   0.0413   0.0438   0.0222   0.0018   0.0067   0.0136   0.0249 </r>
        <r>  12.6522   0.0591   0.0223   0.0217   0.0244   0.0147   0.0065   0.0033   0.0111   0.0111 </r>
        <r>  12.7609   0.0304   0.0112   0.0112   0.0105   0.0089   0.0093   0.0004   0.0084   0.0010 </r>
        <r>  12.8696   0.0275   0.0089   0.0120   0.0294   0.0139   0.0067   0.0030   0.0071   0.0011 </r>
        <r>  12.9783   0.0769   0.0258   0.0348   0.1038   0.0452   0.0164   0.0117   0.0173   0.0031 </r>
        <r>  13.0870   0.0775   0.0283   0.0309   0.0698   0.0336   0.0136   0.0082   0.0149   0.0022 </r>
        <r>  13.1956   0.0874   0.0213   0.0363   0.0173   0.0084   0.0030   0.0067   0.0036   0.0016 </r>
        <r>  13.3043   0.1001   0.0277   0.0415   0.0206   0.0091   0.0028   0.0081   0.0030   0.0014 </r>
        <r>  13.4130   0.0490   0.0248   0.0245   0.0350   0.0109   0.0050   0.0285   0.0044   0.0047 </r>
        <r>  13.5217   0.1100   0.0594   0.0619   0.0989   0.0251   0.0164   0.0696   0.0149   0.0298 </r>
        <r>  13.6304   0.1576   0.0774   0.0692   0.1000   0.0226   0.0228   0.0460   0.0199   0.0331 </r>
        <r>  13.7391   0.0560   0.0296   0.0207   0.0348   0.0071   0.0076   0.0164   0.0058   0.0064 </r>
        <r>  13.8478   0.0376   0.0278   0.0195   0.0729   0.0199   0.0018   0.0479   0.0017   0.0004 </r>
        <r>  13.9564   0.0536   0.0277   0.0289   0.0888   0.0244   0.0017   0.0553   0.0017   0.0003 </r>
        <r>  14.0651   0.0203   0.0066   0.0302   0.0219   0.0048   0.0079   0.0139   0.0037   0.0007 </r>
        <r>  14.1738   0.0438   0.0137   0.1207   0.0309   0.0026   0.0390   0.0240   0.0186   0.0028 </r>
        <r>  14.2825   0.0388   0.0140   0.0909   0.0251   0.0039   0.0306   0.0196   0.0167   0.0018 </r>
        <r>  14.3912   0.0216   0.0104   0.0183   0.0103   0.0060   0.0093   0.0028   0.0076   0.0002 </r>
        <r>  14.4999   0.0456   0.0239   0.0240   0.0199   0.0141   0.0158   0.0020   0.0146   0.0002 </r>
        <r>  14.6086   0.0245   0.0192   0.0132   0.0227   0.0095   0.0085   0.0058   0.0078   0.0003 </r>
        <r>  14.7173   0.0225   0.0441   0.0143   0.0692   0.0155   0.0071   0.0244   0.0058   0.0016 </r>
        <r>  14.8259   0.0535   0.0528   0.0297   0.0601   0.0170   0.0131   0.0185   0.0098   0.0055 </r>
        <r>  14.9346   0.0926   0.0594   0.0459   0.0384   0.0153   0.0158   0.0055   0.0113   0.0088 </r>
        <r>  15.0433   0.0978   0.0570   0.0544   0.0876   0.0262   0.0119   0.0079   0.0137   0.0065 </r>
        <r>  15.1520   0.0441   0.0195   0.0310   0.1320   0.0378   0.0037   0.0098   0.0212   0.0073 </r>
        <r>  15.2607   0.0248   0.0123   0.0165   0.1245   0.0399   0.0004   0.0038   0.0269   0.0118 </r>
        <r>  15.3694   0.0086   0.0129   0.0057   0.0501   0.0152   0.0002   0.0046   0.0095   0.0055 </r>
        <r>  15.4781   0.0008   0.0611   0.0031   0.0355   0.0049   0.0015   0.0386   0.0009   0.0113 </r>
        <r>  15.5867   0.0056   0.0775   0.0131   0.0367   0.0065   0.0035   0.0690   0.0019   0.0171 </r>
        <r>  15.6954   0.0246   0.0520   0.0448   0.0702   0.0131   0.0084   0.0813   0.0092   0.0078 </r>
        <r>  15.8041   0.0355   0.0828   0.0650   0.1285   0.0226   0.0125   0.1116   0.0145   0.0147 </r>
        <r>  15.9128   0.0291   0.0389   0.0449   0.0784   0.0141   0.0089   0.0369   0.0101   0.0189 </r>
        <r>  16.0215   0.0390   0.0536   0.0459   0.0950   0.0155   0.0129   0.0062   0.0136   0.0202 </r>
        <r>  16.1302   0.0291   0.1034   0.0316   0.1015   0.0128   0.0125   0.0216   0.0121   0.0109 </r>
        <r>  16.2389   0.0408   0.0783   0.0428   0.0720   0.0147   0.0164   0.0318   0.0161   0.0032 </r>
        <r>  16.3475   0.0620   0.0666   0.0644   0.0592   0.0209   0.0253   0.0206   0.0226   0.0006 </r>
        <r>  16.4562   0.0672   0.0459   0.1832   0.0412   0.0107   0.0562   0.0156   0.0443   0.0016 </r>
        <r>  16.5649   0.0611   0.0544   0.1352   0.0342   0.0070   0.0439   0.0159   0.0312   0.0030 </r>
        <r>  16.6736   0.0398   0.1008   0.0474   0.0457   0.0083   0.0235   0.0501   0.0105   0.0088 </r>
        <r>  16.7823   0.0209   0.1388   0.0620   0.0889   0.0068   0.0248   0.0785   0.0130   0.0160 </r>
        <r>  16.8910   0.0186   0.1020   0.0571   0.0774   0.0119   0.0178   0.0701   0.0113   0.0297 </r>
        <r>  16.9997   0.0045   0.0328   0.0098   0.0245   0.0073   0.0029   0.0277   0.0017   0.0185 </r>
        <r>  17.1083   0.0002   0.0028   0.0003   0.0020   0.0007   0.0001   0.0024   0.0000   0.0018 </r>
        <r>  17.2170   0.0003   0.0062   0.0035   0.0031   0.0000   0.0009   0.0037   0.0000   0.0010 </r>
        <r>  17.3257   0.0026   0.0503   0.0318   0.0276   0.0009   0.0083   0.0324   0.0011   0.0076 </r>
        <r>  17.4344   0.0086   0.0598   0.0456   0.0773   0.0079   0.0101   0.0425   0.0103   0.0092 </r>
        <r>  17.5431   0.0145   0.0172   0.0236   0.1066   0.0167   0.0020   0.0129   0.0196   0.0072 </r>
        <r>  17.6518   0.0299   0.0362   0.0332   0.1394   0.0314   0.0037   0.0097   0.0260   0.0265 </r>
        <r>  17.7605   0.0416   0.1072   0.0575   0.2025   0.0552   0.0186   0.0400   0.0429   0.0414 </r>
        <r>  17.8691   0.0366   0.1131   0.0598   0.1892   0.0552   0.0251   0.0510   0.0483   0.0272 </r>
        <r>  17.9778   0.0228   0.0827   0.0305   0.0967   0.0155   0.0172   0.0266   0.0203   0.0095 </r>
        <r>  18.0865   0.0324   0.0868   0.0263   0.0719   0.0103   0.0236   0.0155   0.0148   0.0085 </r>
        <r>  18.1952   0.0292   0.0760   0.0430   0.0831   0.0128   0.0155   0.0415   0.0117   0.0178 </r>
        <r>  18.3039   0.0343   0.0492   0.0822   0.0758   0.0112   0.0127   0.0756   0.0147   0.0105 </r>
        <r>  18.4126   0.0291   0.0550   0.0609   0.0473   0.0063   0.0167   0.0627   0.0117   0.0037 </r>
        <r>  18.5213   0.0108   0.0229   0.0154   0.0180   0.0025   0.0070   0.0136   0.0050   0.0023 </r>
        <r>  18.6299   0.0098   0.0202   0.0317   0.0284   0.0070   0.0094   0.0207   0.0077   0.0212 </r>
        <r>  18.7386   0.0182   0.0333   0.0665   0.0520   0.0120   0.0189   0.0364   0.0163   0.0369 </r>
        <r>  18.8473   0.0107   0.0155   0.0235   0.0416   0.0060   0.0064   0.0135   0.0085   0.0217 </r>
        <r>  18.9560   0.0039   0.0343   0.0050   0.0516   0.0044   0.0055   0.0079   0.0080   0.0124 </r>
        <r>  19.0647   0.0050   0.0732   0.0243   0.1131   0.0168   0.0186   0.0315   0.0266   0.0130 </r>
        <r>  19.1734   0.0133   0.0647   0.1100   0.0877   0.0177   0.0459   0.0675   0.0442   0.0085 </r>
        <r>  19.2821   0.0212   0.0490   0.1615   0.0234   0.0077   0.0527   0.0958   0.0321   0.0037 </r>
        <r>  19.3907   0.0264   0.0356   0.1075   0.0245   0.0100   0.0270   0.0612   0.0157   0.0022 </r>
        <r>  19.4994   0.0253   0.0390   0.0432   0.0241   0.0169   0.0119   0.0163   0.0107   0.0020 </r>
        <r>  19.6081   0.0070   0.0483   0.0335   0.0186   0.0056   0.0059   0.0122   0.0063   0.0043 </r>
        <r>  19.7168   0.0027   0.0482   0.0158   0.0559   0.0077   0.0088   0.0080   0.0139   0.0101 </r>
        <r>  19.8255   0.0113   0.0626   0.0086   0.1541   0.0312   0.0071   0.0158   0.0238   0.0465 </r>
        <r>  19.9342   0.0189   0.1041   0.0111   0.2161   0.0406   0.0109   0.0220   0.0275   0.0662 </r>
        <r>  20.0429   0.0116   0.0538   0.0064   0.0981   0.0181   0.0076   0.0117   0.0122   0.0294 </r>
        <r>  20.1515   0.0042   0.0151   0.0019   0.0464   0.0102   0.0015   0.0059   0.0036   0.0131 </r>
        <r>  20.2602   0.0036   0.0132   0.0035   0.0490   0.0114   0.0017   0.0070   0.0037   0.0138 </r>
        <r>  20.3689   0.0015   0.0125   0.0229   0.0208   0.0107   0.0079   0.0108   0.0094   0.0057 </r>
        <r>  20.4776   0.0028   0.0395   0.0514   0.0505   0.0319   0.0109   0.0146   0.0331   0.0051 </r>
        <r>  20.5863   0.0067   0.0529   0.0556   0.0792   0.0376   0.0069   0.0217   0.0409   0.0051 </r>
        <r>  20.6950   0.0154   0.0298   0.0675   0.0392   0.0180   0.0053   0.0570   0.0186   0.0065 </r>
        <r>  20.8037   0.0256   0.0160   0.0839   0.0280   0.0092   0.0148   0.0871   0.0120   0.0179 </r>
        <r>  20.9123   0.0222   0.0136   0.1095   0.0230   0.0065   0.0282   0.0870   0.0201   0.0153 </r>
        <r>  21.0210   0.0138   0.0075   0.0859   0.0075   0.0027   0.0207   0.0730   0.0107   0.0035 </r>
        <r>  21.1297   0.0123   0.0105   0.0474   0.0098   0.0051   0.0128   0.0488   0.0055   0.0020 </r>
        <r>  21.2384   0.0088   0.0086   0.0152   0.0277   0.0079   0.0061   0.0132   0.0053   0.0081 </r>
        <r>  21.3471   0.0101   0.0063   0.0335   0.0619   0.0088   0.0078   0.0092   0.0078   0.0201 </r>
        <r>  21.4558   0.0120   0.0240   0.0672   0.0763   0.0088   0.0309   0.0068   0.0259   0.0172 </r>
        <r>  21.5645   0.0124   0.0459   0.0498   0.0998   0.0190   0.0461   0.0165   0.0411   0.0255 </r>
        <r>  21.6732   0.0057   0.0390   0.0127   0.0702   0.0122   0.0164   0.0103   0.0181   0.0192 </r>
        <r>  21.7818   0.0021   0.0210   0.0028   0.0229   0.0052   0.0038   0.0016   0.0066   0.0048 </r>
[...]
       </set>
       <set comment="band 6">
        <r>  0.2322  0.0104  0.1767  0.0012  0.0000  0.2561  0.0902  0.0124  0.0037 </r>
       </set>
       <set comment="band 7">
        <r>  0.3217  0.0838  0.1331  0.0621  0.0309  0.0007  0.0001  0.0043  0.0338 </r>
       </set>
       <set comment="band 8">
        <r>  0.0573  0.0003  0.0643  0.3597  0.0936  0.0068  0.0389  0.0343  0.0052 </r>
       </set>
       <set comment="band 9">
        <r>  0.0056  0.2092  0.0598  0.0426  0.0087  0.0327  0.2141  0.0012  0.0310 </r>
       </set>
      </set>
      <set comment="kpoint 46">
       <set comment="band 1">
        <r>  0.0062  0.0314  0.0005  0.0003  0.0331  0.0002  0.6536  0.0001  0.0911 </r>
       </set>
       <set comment="band 2">
        <r>  0.0031  0.0035  0.0004  0.0449  0.7622  0.0070  0.0194  0.0033  0.0108 </r>
       </set>
       <set comment="band 3">
        <r>  0.0066  0.0003  0.0651  0.0006  0.0093  0.7638  0.0014  0.0050  0.0069 </r>
       </set>
       <set comment="band 4">
        <r>  0.0262  0.0013  0.0023  0.0008  0.0020  0.0092  0.1111  0.0028  0.7692 </r>
       </set>
       <set comment="band 5">
        <r>  0.0003  0.0000  0.0006  0.0007  0.0050  0.0111  0.0002  0.9620  0.0014 </r>
       </set>
       <set comment="band 6">
        <r>  0.5070  0.0001  0.0913  0.0080  0.0131  0.0790  0.0368  0.0053  0.0246 </r>
       </set>
       <set comment="band 7">
        <r>  0.0963  0.0286  0.2834  0.0800  0.0428  0.1067  0.0061  0.0008  0.0311 </r>
       </set>
       <set comment="band 8">
        <r>  0.0773  0.0102  0.0667  0.3328  0.1147  0.0207  0.0435  0.0078  0.0037 </r>
       </set>
       <set comment="band 9">
        <r>  0.0002  0.2387  0.0151  0.0461  0.0155  0.0076  0.2278  0.0001  0.0757 </r>
       </set>
      </set>
      <set comment="kpoint 47">
       <set comment="band 1">
        <r>  0.0135  0.0285  0.0021  0.0056  0.0001  0.0894  0.4030  0.0029  0.2746 </r>
       </set>
       <set comment="band 2">
        <r>  0.0117  0.0043  0.0353  0.0046  0.1088  0.5623  0.0850  0.0272  0.0131 </r>
       </set>
       <set comment="band 3">
        <r>  0.0385  0.0032  0.0085  0.0493  0.5792  0.1335  0.0077  0.0000  0.0259 </r>
       </set>
       <set comment="band 4">
        <r>  0.0055  0.0019  0.0007  0.0135  0.0330  0.0003  0.3128  0.0291  0.5310 </r>
       </set>
       <set comment="band 5">
        <r>  0.0014  0.0000  0.0039  0.0000  0.0166  0.0420  0.0088  0.8847  0.0138 </r>
       </set>
       <set comment="band 6">
        <r>  0.3357  0.0155  0.0008  0.1332  0.2116  0.0004  0.0218  0.0076  0.0474 </r>
       </set>
       <set comment="band 7">
        <r>  0.2069  0.0689  0.1345  0.1066  0.0067  0.0712  0.0755  0.0124  0.0005 </r>
       </set>
       <set comment="band 8">
        <r>  0.0953  0.0135  0.3123  0.0802  0.0083  0.1017  0.0227  0.0327  0.0123 </r>
       </set>
       <set comment="band 9">
        <r>  0.0123  0.1668  0.0069  0.1211  0.0447  0.0031  0.1455  0.0000  0.1151 </r>
       </set>
      </set>
      <set comment="kpoint 48">
       <set comment="band 1">
        <r>  0.0415  0.0004  0.0009  0.0004  0.2664  0.0004  0.5125  0.0004  0.0000 </r>
       </set>
       <set comment="band 2">
        <r>  0.0028  0.0161  0.0001  0.0161  0.5684  0.0004  0.2340  0.0004  0.0000 </r>
       </set>
       <set comment="band 3">
        <r>  0.0064  0.0000  0.0926  0.0000  0.0029  0.3837  0.0024  0.3837  0.0000 </r>
       </set>
       <set comment="band 4">
        <r>  0.0000  0.0036  0.0000  0.0036  0.0000  0.0325  0.0000  0.0325  0.8826 </r>
       </set>
       <set comment="band 5">
        <r>  0.0000  0.0000  0.0000  0.0000  0.0000  0.4557  0.0000  0.4557  0.0672 </r>
       </set>
       <set comment="band 6">
        <r>  0.1198  0.0005  0.3396  0.0005  0.0005  0.1086  0.0367  0.1086  0.0000 </r>
       </set>
       <set comment="band 7">
        <r>  0.4845  0.0381  0.0839  0.0381  0.0348  0.0038  0.0306  0.0038  0.0000 </r>
       </set>
       <set comment="band 8">
        <r>  0.0436  0.1583  0.0241  0.1583  0.0440  0.0062  0.2235  0.0062  0.0000 </r>
       </set>
       <set comment="band 9">
        <r>  0.0000  0.2459  0.0000  0.2459  0.0000  0.0015  0.0000  0.0015  0.0569 </r>
       </set>
      </set>
      <set comment="kpoint 49">
       <set comment="band 1">
        <r>  0.0299  0.0153  0.0008  0.0009  0.1071  0.0002  0.6466  0.0002  0.0126 </r>
       </set>
       <set comment="band 2">
        <r>  0.0005  0.0062  0.0000  0.0248  0.7234  0.0002  0.0922  0.0011  0.0031 </r>
       </set>
       <set comment="band 3">
        <r>  0.0081  0.0002  0.0798  0.0000  0.0010  0.7419  0.0005  0.0140  0.0217 </r>
       </set>
       <set comment="band 4">
        <r>  0.0089  0.0053  0.0039  0.0005  0.0001  0.0160  0.0189  0.0073  0.8806 </r>
       </set>
       <set comment="band 5">
        <r>  0.0003  0.0000  0.0005  0.0007  0.0020  0.0260  0.0000  0.9476  0.0043 </r>
       </set>
       <set comment="band 6">
        <r>  0.1861  0.0010  0.2994  0.0000  0.0005  0.1820  0.0437  0.0109  0.0009 </r>
       </set>
       <set comment="band 7">
        <r>  0.4592  0.0205  0.1343  0.0193  0.0143  0.0255  0.0301  0.0004  0.0242 </r>
       </set>
       <set comment="band 8">
        <r>  0.0208  0.0574  0.0144  0.3422  0.0954  0.0046  0.1034  0.0051  0.0013 </r>
       </set>
       <set comment="band 9">
        <r>  0.0012  0.2431  0.0040  0.1178  0.0234  0.0038  0.1507  0.0006  0.0548 </r>
       </set>
      </set>
      <set comment="kpoint 50">
       <set comment="band 1">
        <r>  0.0576  0.0001  0.0081  0.0001  0.3197  0.0056  0.4228  0.0056  0.0000 </r>
       </set>
       <set comment="band 2">
        <r>  0.0065  0.0162  0.0014  0.0162  0.4980  0.0032  0.2911  0.0032  0.0000 </r>
       </set>
       <set comment="band 3">
        <r>  0.0484  0.0001  0.0864  0.0001  0.0272  0.3308  0.0284  0.3308  0.0000 </r>
       </set>
       <set comment="band 4">
        <r>  0.0000  0.0041  0.0000  0.0041  0.0000  0.1423  0.0000  0.1423  0.6537 </r>
       </set>
       <set comment="band 5">
        <r>  0.0000  0.0001  0.0000  0.0001  0.0000  0.3409  0.0000  0.3409  0.2996 </r>
       </set>
       <set comment="band 6">
        <r>  0.1873  0.0075  0.1951  0.0075  0.0003  0.1418  0.0983  0.1418  0.0000 </r>
       </set>
       <set comment="band 7">
        <r>  0.3146  0.0922  0.1009  0.0922  0.0529  0.0026  0.0004  0.0026  0.0000 </r>
       </set>
       <set comment="band 8">
        <r>  0.0811  0.0884  0.1376  0.0884  0.0226  0.0226  0.2157  0.0226  0.0000 </r>
       </set>
       <set comment="band 9">
        <r>  0.0000  0.2429  0.0000  0.2429  0.0000  0.0125  0.0000  0.0125  0.0480 </r>
       </set>
      </set>
      <set comment="kpoint 51">
       <set comment="band 1">
        <r>  0.3511  0.0120  0.0120  0.0120  0.1060  0.1060  0.0000  0.1060  0.0000 </r>
       </set>
       <set comment="band 2">
        <r>  0.0000  0.0001  0.0001  0.0005  0.0804  0.3351  0.1010  0.0873  0.3202 </r>
       </set>
       <set comment="band 3">
        <r>  0.0000  0.0003  0.0004  0.0000  0.2548  0.0001  0.3202  0.2479  0.1010 </r>
       </set>
       <set comment="band 4">
        <r>  0.1124  0.0459  0.0459  0.0459  0.1701  0.1701  0.0000  0.1701  0.0000 </r>
       </set>
       <set comment="band 5">
        <r>  0.0000  0.0010  0.0009  0.0000  0.2078  0.0007  0.3704  0.2293  0.1498 </r>
       </set>
       <set comment="band 6">
        <r>  0.0000  0.0003  0.0004  0.0012  0.0841  0.2912  0.1498  0.0626  0.3704 </r>
       </set>
       <set comment="band 7">
        <r>  0.1921  0.0893  0.0893  0.0893  0.0697  0.0697  0.0000  0.0697  0.0000 </r>
       </set>
       <set comment="band 8">
        <r>  0.0002  0.0066  0.0066  0.0066  0.0166  0.0166  0.0000  0.0166  0.0000 </r>
       </set>
       <set comment="band 9">
        <r>  0.0000  0.2804  0.1801  0.0156  0.0493  0.0043  0.0008  0.0768  0.0006 </r>
       </set>
      </set>
      <set comment="kpoint 52">
       <set comment="band 1">
        <r>  0.2497  0.0185  0.0185  0.0005  0.1317  0.1980  0.0004  0.1317  0.0011 </r>
       </set>
       <set comment="band 2">
        <r>  0.0045  0.0000  0.0000  0.0074  0.1200  0.2825  0.0931  0.1200  0.2792 </r>
       </set>
       <set comment="band 3">
        <r>  0.0000  0.0005  0.0005  0.0000  0.1780  0.0000  0.4252  0.1780  0.1417 </r>
       </set>
       <set comment="band 4">
        <r>  0.0740  0.0447  0.0447  0.0380  0.1601  0.0011  0.0634  0.1601  0.1901 </r>
       </set>
       <set comment="band 5">
        <r>  0.0000  0.0009  0.0009  0.0000  0.2955  0.0000  0.2708  0.2955  0.0903 </r>
       </set>
       <set comment="band 6">
        <r>  0.0893  0.0267  0.0267  0.0072  0.0010  0.4483  0.0762  0.0010  0.2285 </r>
       </set>
       <set comment="band 7">
        <r>  0.2303  0.0799  0.0799  0.0993  0.0701  0.0485  0.0043  0.0701  0.0129 </r>
       </set>
       <set comment="band 8">
        <r>  0.0224  0.0277  0.0277  0.2344  0.0803  0.0115  0.0100  0.0804  0.0301 </r>
       </set>
       <set comment="band 9">
        <r>  0.0174  0.0615  0.0610  0.0555  0.0015  0.0006  0.0028  0.0015  0.0085 </r>
       </set>
      </set>
      <set comment="kpoint 53">
       <set comment="band 1">
        <r>  0.1233  0.0150  0.0150  0.0042  0.0417  0.5292  0.0117  0.0417  0.0352 </r>
       </set>
       <set comment="band 2">
        <r>  0.0055  0.0124  0.0124  0.0190  0.1644  0.0264  0.1114  0.1644  0.3343 </r>
       </set>
       <set comment="band 3">
        <r>  0.0230  0.0309  0.0309  0.0359  0.1928  0.0515  0.0637  0.1928  0.1910 </r>
       </set>
       <set comment="band 4">
        <r>  0.0000  0.0032  0.0032  0.0000  0.0424  0.0000  0.6267  0.0424  0.2089 </r>
       </set>
       <set comment="band 5">
        <r>  0.0000  0.0003  0.0003  0.0000  0.4353  0.0000  0.0637  0.4353  0.0212 </r>
       </set>
       <set comment="band 6">
        <r>  0.2565  0.0482  0.0482  0.0026  0.0003  0.3503  0.0297  0.0003  0.0891 </r>
       </set>
       <set comment="band 7">
        <r>  0.2210  0.0800  0.0800  0.1131  0.0515  0.0051  0.0229  0.0515  0.0686 </r>
       </set>
       <set comment="band 8">
        <r>  0.0632  0.0365  0.0365  0.3062  0.0948  0.0006  0.0124  0.0948  0.0373 </r>
       </set>
       <set comment="band 9">
        <r>  0.0189  0.1138  0.0020  0.0015  0.0000  0.0865  0.0012  0.0000  0.0924 </r>
       </set>
      </set>
      <set comment="kpoint 54">
       <set comment="band 1">
        <r>  0.0469  0.0009  0.0009  0.0013  0.0042  0.4974  0.0728  0.0042  0.2184 </r>
       </set>
       <set comment="band 2">
        <r>  0.0032  0.0371  0.0371  0.0004  0.0094  0.2364  0.1197  0.0094  0.3592 </r>
       </set>
       <set comment="band 3">
        <r>  0.0025  0.0012  0.0012  0.0809  0.3700  0.0312  0.0002  0.3700  0.0006 </r>
       </set>
       <set comment="band 4">
        <r>  0.0000  0.0045  0.0045  0.0000  0.0325  0.0000  0.6462  0.0325  0.2154 </r>
       </set>
       <set comment="band 5">
        <r>  0.0000  0.0001  0.0001  0.0000  0.4509  0.0000  0.0497  0.4509  0.0166 </r>
       </set>
       <set comment="band 6">
        <r>  0.4531  0.0547  0.0547  0.0005  0.0043  0.1624  0.0014  0.0043  0.0043 </r>
       </set>
       <set comment="band 7">
        <r>  0.0570  0.0398  0.0398  0.2930  0.0992  0.0059  0.0190  0.0992  0.0570 </r>
       </set>
       <set comment="band 8">
        <r>  0.1363  0.0822  0.0822  0.1421  0.0337  0.0087  0.0453  0.0337  0.1358 </r>
       </set>
       <set comment="band 9">
        <r>  0.0000  0.2388  0.2386  0.0000  0.0006  0.0000  0.0923  0.0006  0.0308 </r>
       </set>
      </set>
      <set comment="kpoint 55">
       <set comment="band 1">
        <r>  0.1927  0.0000  0.0219  0.0000  0.2495  0.1506  0.0156  0.1506  0.0000 </r>
       </set>
       <set comment="band 2">
        <r>  0.0004  0.0033  0.0001  0.0033  0.0858  0.0936  0.6164  0.0936  0.0000 </r>
       </set>
       <set comment="band 3">
        <r>  0.0000  0.0020  0.0000  0.0020  0.0000  0.2065  0.0000  0.2065  0.5066 </r>
       </set>
       <set comment="band 4">
        <r>  0.0565  0.0361  0.0417  0.0361  0.4960  0.0193  0.0993  0.0193  0.0000 </r>
       </set>
       <set comment="band 5">
        <r>  0.0000  0.0002  0.0000  0.0002  0.0000  0.2698  0.0000  0.2698  0.4382 </r>
       </set>
       <set comment="band 6">
        <r>  0.1140  0.0344  0.0788  0.0344  0.0250  0.1738  0.1831  0.1738  0.0000 </r>
       </set>
       <set comment="band 7">
        <r>  0.2828  0.0833  0.0541  0.0833  0.0975  0.0590  0.0066  0.0590  0.0000 </r>
       </set>
       <set comment="band 8">
        <r>  0.0054  0.0001  0.0778  0.0002  0.0170  0.0034  0.0988  0.0034  0.0000 </r>
       </set>
       <set comment="band 9">
        <r>  0.0000  0.2323  0.0001  0.2393  0.0000  0.0298  0.0000  0.0309  0.0375 </r>
       </set>
      </set>
      <set comment="kpoint 56">
       <set comment="band 1">
        <r>  0.1144  0.0015  0.0222  0.0113  0.3222  0.2204  0.0251  0.0928  0.0016 </r>
       </set>
       <set comment="band 2">
        <r>  0.0004  0.0157  0.0000  0.0007  0.0294  0.1520  0.5257  0.0027  0.1372 </r>
       </set>
       <set comment="band 3">
        <r>  0.0209  0.0232  0.0311  0.0353  0.3519  0.2327  0.1192  0.0157  0.0035 </r>
       </set>
       <set comment="band 4">
        <r>  0.0015  0.0031  0.0148  0.0005  0.0578  0.0001  0.0845  0.2372  0.5188 </r>
       </set>
       <set comment="band 5">
        <r>  0.0010  0.0003  0.0020  0.0017  0.0694  0.0850  0.0459  0.5357  0.2265 </r>
       </set>
       <set comment="band 6">
        <r>  0.2104  0.0401  0.1062  0.0236  0.0008  0.2622  0.0920  0.0293  0.0244 </r>
       </set>
       <set comment="band 7">
        <r>  0.2732  0.0664  0.0488  0.1172  0.1099  0.0104  0.0164  0.0502  0.0274 </r>
       </set>
       <set comment="band 8">
        <r>  0.0711  0.0331  0.0846  0.2881  0.0683  0.0009  0.0002  0.0493  0.0548 </r>
       </set>
       <set comment="band 9">
        <r>  0.0172  0.0836  0.1682  0.0021  0.0042  0.0488  0.1832  0.0015  0.0087 </r>
       </set>
      </set>
      <set comment="kpoint 57">
       <set comment="band 1">
        <r>  0.0227  0.0094  0.0045  0.0012  0.0032  0.3206  0.2343  0.0021  0.2440 </r>
       </set>
       <set comment="band 2">
        <r>  0.0153  0.0280  0.0379  0.0021  0.0438  0.3832  0.2214  0.0086  0.0813 </r>
       </set>
       <set comment="band 3">
        <r>  0.0012  0.0022  0.0040  0.0637  0.6762  0.0556  0.0009  0.0495  0.0051 </r>
       </set>
       <set comment="band 4">
        <r>  0.0112  0.0007  0.0060  0.0015  0.0004  0.0100  0.3681  0.0249  0.5058 </r>
       </set>
       <set comment="band 5">
        <r>  0.0015  0.0000  0.0001  0.0027  0.0937  0.0062  0.0083  0.8486  0.0108 </r>
       </set>
       <set comment="band 6">
        <r>  0.4682  0.0207  0.0823  0.0001  0.0055  0.1402  0.0270  0.0079  0.0031 </r>
       </set>
       <set comment="band 7">
        <r>  0.0517  0.0457  0.0670  0.2738  0.1305  0.0153  0.0289  0.0313  0.0486 </r>
       </set>
       <set comment="band 8">
        <r>  0.1349  0.0483  0.1222  0.1713  0.0539  0.0192  0.0194  0.0219  0.1033 </r>
       </set>
       <set comment="band 9">
        <r>  0.0125  0.1610  0.1831  0.0010  0.0014  0.0479  0.1888  0.0005  0.0133 </r>
       </set>
      </set>
      <set comment="kpoint 58">
       <set comment="band 1">
        <r>  0.0748  0.0020  0.0105  0.0020  0.4987  0.0459  0.1539  0.0459  0.0000 </r>
       </set>
       <set comment="band 2">
        <r>  0.0019  0.0258  0.0011  0.0258  0.0604  0.0541  0.6058  0.0541  0.0000 </r>
       </set>
       <set comment="band 3">
        <r>  0.0172  0.0096  0.0649  0.0096  0.2289  0.2550  0.0093  0.2550  0.0000 </r>
       </set>
       <set comment="band 4">
        <r>  0.0000  0.0037  0.0000  0.0037  0.0000  0.1269  0.0000  0.1269  0.6694 </r>
       </set>
       <set comment="band 5">
        <r>  0.0000  0.0001  0.0000  0.0001  0.0000  0.3553  0.0000  0.3553  0.2641 </r>
       </set>
       <set comment="band 6">
        <r>  0.2407  0.0231  0.1534  0.0231  0.0005  0.1224  0.0912  0.1224  0.0000 </r>
       </set>
       <set comment="band 7">
        <r>  0.2710  0.0933  0.0509  0.0933  0.1508  0.0036  0.0307  0.0036  0.0000 </r>
       </set>
       <set comment="band 8">
        <r>  0.0894  0.0549  0.2246  0.0549  0.0055  0.0397  0.1543  0.0397  0.0000 </r>
       </set>
       <set comment="band 9">
        <r>  0.0000  0.2384  0.0000  0.2381  0.0000  0.0056  0.0000  0.0056  0.1023 </r>
       </set>
      </set>
      <set comment="kpoint 59">
       <set comment="band 1">
        <r>  0.1971  0.0010  0.0010  0.0010  0.1958  0.1958  0.0000  0.1958  0.0000 </r>
       </set>
       <set comment="band 2">
        <r>  0.0000  0.0000  0.0000  0.0001  0.0630  0.2576  0.1302  0.0658  0.4019 </r>
       </set>
       <set comment="band 3">
        <r>  0.0000  0.0000  0.0000  0.0000  0.1946  0.0000  0.4019  0.1918  0.1302 </r>
       </set>
       <set comment="band 4">
        <r>  0.0000  0.0003  0.0002  0.0000  0.2367  0.0071  0.2531  0.3255  0.1527 </r>
       </set>
       <set comment="band 5">
        <r>  0.0000  0.0000  0.0001  0.0003  0.1428  0.3724  0.1527  0.0540  0.2531 </r>
       </set>
       <set comment="band 6">
        <r>  0.0932  0.1254  0.1254  0.1254  0.0380  0.0380  0.0000  0.0380  0.0000 </r>
       </set>
       <set comment="band 7">
        <r>  0.3739  0.0392  0.0392  0.0392  0.1025  0.1025  0.0000  0.1025  0.0000 </r>
       </set>
       <set comment="band 8">
        <r>  0.0000  0.0069  0.0070  0.0069  0.0016  0.0016  0.0000  0.0016  0.0000 </r>
       </set>
       <set comment="band 9">
        <r>  0.0000  0.3081  0.0346  0.1366  0.0011  0.0044  0.0000  0.0099  0.0002 </r>
       </set>
      </set>
      <set comment="kpoint 60">
       <set comment="band 1">
        <r>  0.1578  0.0034  0.0034  0.0072  0.1835  0.2606  0.0004  0.1835  0.0011 </r>
       </set>
       <set comment="band 2">
        <r>  0.0001  0.0026  0.0026  0.0007  0.0685  0.1780  0.1438  0.0685  0.4315 </r>
       </set>
       <set comment="band 3">
        <r>  0.0000  0.0011  0.0011  0.0000  0.1705  0.0000  0.4327  0.1705  0.1442 </r>
       </set>
       <set comment="band 4">
        <r>  0.0012  0.0425  0.0425  0.0428  0.1068  0.2748  0.0526  0.1068  0.1579 </r>
       </set>
       <set comment="band 5">
        <r>  0.0000  0.0002  0.0002  0.0000  0.3088  0.0000  0.2669  0.3088  0.0890 </r>
       </set>
       <set comment="band 6">
        <r>  0.0438  0.1119  0.1119  0.1025  0.0034  0.1749  0.0338  0.0034  0.1013 </r>
       </set>
       <set comment="band 7">
        <r>  0.4464  0.0076  0.0076  0.0338  0.1258  0.0788  0.0024  0.1258  0.0072 </r>
       </set>
       <set comment="band 8">
        <r>  0.0197  0.0180  0.0180  0.1951  0.0342  0.0033  0.0204  0.0342  0.0612 </r>
       </set>
       <set comment="band 9">
        <r>  0.0248  0.0641  0.0638  0.1021  0.0058  0.0343  0.0001  0.0058  0.0003 </r>
       </set>
      </set>
     </set>
    </set>
   </array>
  </projected>
 </calculation>
 <structure name="finalpos"">
  <crystal>
   <varray name="basis"">
    <v>       0.00000000      2.05000000      2.05000000</v>
    <v>       2.05000000      0.00000000      2.05000000</v>
    <v>       2.05000000      2.05000000      0.00000000</v>
   </varray>
   <i name="volume""     17.23025000</i>
   <varray name="rec_basis"">
    <v>      -0.24390244      0.24390244      0.24390244</v>
    <v>       0.24390244     -0.24390244      0.24390244</v>
    <v>       0.24390244      0.24390244     -0.24390244</v>
   </varray>
  </crystal>
  <varray name="positions"">
   <v>       0.00000000      0.00000000      0.00000000</v>
  </varray>
 </structure>
</modeling>
