----- GAMESS execution script 'rungms' -----
This job is running on host dftfe.crc.nd.edu
under operating system Linux at Thu Feb 26 00:19:02 EST 2015
Available scratch disk space (Kbyte units) at beginning of the job is
Filesystem     1K-blocks     Used Available Use% Mounted on
/dev/sda2      147771864 22815348 117450084  17% /
GAMESS temporary binary files will be written to /tmp
GAMESS supplementary output files will be written to /tmp
Copying input file gamess.inp to your run's scratch directory...

 Distributed Data Interface kickoff program.
 Initiating 1 compute processes on 1 nodes to run the following command:
 /opt/crc/gamess/2012R1/gamess/gamess.00.x gamess 

          ******************************************************
          *         GAMESS VERSION =  1 MAY 2012 (R1)          *
          *             FROM IOWA STATE UNIVERSITY             *
          * M.W.SCHMIDT, K.K.BALDRIDGE, J.A.BOATZ, S.T.ELBERT, *
          *   M.S.GORDON, J.H.JENSEN, S.KOSEKI, N.MATSUNAGA,   *
          *          K.A.NGUYEN, S.J.SU, T.L.WINDUS,           *
          *       TOGETHER WITH M.DUPUIS, J.A.MONTGOMERY       *
          *         J.COMPUT.CHEM.  14, 1347-1363(1993)        *
          **************** 64 BIT LINUX VERSION ****************

  SINCE 1993, STUDENTS AND POSTDOCS WORKING AT IOWA STATE UNIVERSITY
  AND ALSO IN THEIR VARIOUS JOBS AFTER LEAVING ISU HAVE MADE IMPORTANT
  CONTRIBUTIONS TO THE CODE:
     IVANA ADAMOVIC, CHRISTINE AIKENS, YURI ALEXEEV, POOJA ARORA,
     ANDREY ASADCHEV, ROB BELL, PRADIPTA BANDYOPADHYAY, JONATHAN BENTZ,
     BRETT BODE, GALINA CHABAN, WEI CHEN, CHEOL HO CHOI, PAUL DAY,
     ALBERT DEFUSCO, TIM DUDLEY, DMITRI FEDOROV, GRAHAM FLETCHER,
     MARK FREITAG, KURT GLAESEMANN, DAN KEMP, GRANT MERRILL,
     NORIYUKI MINEZAWA, JONATHAN MULLIN, TAKESHI NAGATA,
     SEAN NEDD, HEATHER NETZLOFF, BOSILJKA NJEGIC, RYAN OLSON, MIKE PAK,
     JIM SHOEMAKER, LYUDMILA SLIPCHENKO, SAROM SOK, JIE SONG,
     TETSUYA TAKETSUGU, SIMON WEBB, SOOHAENG YOO, FEDERICO ZAHARIEV

  ADDITIONAL CODE HAS BEEN PROVIDED BY COLLABORATORS IN OTHER GROUPS:
     IOWA STATE UNIVERSITY:
          JOE IVANIC, LAIMUTIS BYTAUTAS, KLAUS RUEDENBERG
     UNIVERSITY OF TOKYO: KIMIHIKO HIRAO, TAKAHITO NAKAJIMA,
          TAKAO TSUNEDA, MUNEAKI KAMIYA, SUSUMU YANAGISAWA,
          KIYOSHI YAGI, MAHITO CHIBA, SEIKEN TOKURA, NAOAKI KAWAKAMI
     UNIVERSITY OF AARHUS: FRANK JENSEN
     UNIVERSITY OF IOWA: VISVALDAS KAIRYS, HUI LI
     NATIONAL INST. OF STANDARDS AND TECHNOLOGY: WALT STEVENS, DAVID GARMER
     UNIVERSITY OF PISA: BENEDETTA MENNUCCI, JACOPO TOMASI
     UNIVERSITY OF MEMPHIS: HENRY KURTZ, PRAKASHAN KORAMBATH
     UNIVERSITY OF ALBERTA: TOBY ZENG, MARIUSZ KLOBUKOWSKI
     UNIVERSITY OF NEW ENGLAND: MARK SPACKMAN
     MIE UNIVERSITY: HIROAKI UMEDA
     MICHIGAN STATE UNIVERSITY:
          KAROL KOWALSKI, MARTA WLOCH, JEFFREY GOUR, JESSE LUTZ, PIOTR PIECUCH
     UNIVERSITY OF SILESIA: MONIKA MUSIAL, STANISLAW KUCHARSKI
     FACULTES UNIVERSITAIRES NOTRE-DAME DE LA PAIX:
          OLIVIER QUINET, BENOIT CHAMPAGNE
     UNIVERSITY OF CALIFORNIA - SANTA BARBARA: BERNARD KIRTMAN
     INSTITUTE FOR MOLECULAR SCIENCE:
          KAZUYA ISHIMURA, MICHIO KATOUDA, AND SHIGERU NAGASE
     UNIVERSITY OF NOTRE DAME: DAN CHIPMAN
     KYUSHU UNIVERSITY:
          HARUYUKI NAKANO,
          FENG LONG GU, JACEK KORCHOWIEC, MARCIN MAKOWSKI, AND YURIKO AOKI,
          HIROTOSHI MORI AND EISAKU MIYOSHI
     PENNSYLVANIA STATE UNIVERSITY:
          TZVETELIN IORDANOV, CHET SWALINA, JONATHAN SKONE,
          SHARON HAMMES-SCHIFFER
     WASEDA UNIVERSITY:
          MASATO KOBAYASHI, TOMOKO AKAMA, TSUGUKI TOUMA,
          TAKESHI YOSHIKAWA, YASUHIRO IKABATA, HIROMI NAKAI
     UNIVERSITY OF NEBRASKA:
          PEIFENG SU, DEJUN SI, NANDUN THELLAMUREGE, YALI WANG, HUI LI
     UNIVERSITY OF ZURICH:
          ROBERTO PEVERATI, KIM BALDRIDGE
     N. COPERNICUS UNIVERSITY AND JACKSON STATE UNIVERSITY:
          MARIA BARYSZ

 EXECUTION OF GAMESS BEGUN Thu Feb 26 00:19:02 2015

            ECHO OF THE FIRST FEW INPUT CARDS -
 INPUT CARD> $BASIS GBASIS=PC1 $END                                                         
 INPUT CARD> $CONTRL COORD=ZMT ISPHER=1 RUNTYP=ENERGY DFTTYP=PBE $END                       
 INPUT CARD>                                                                                
 INPUT CARD> $DATA                                                                          
 INPUT CARD>Title                                                                           
 INPUT CARD>Cnv 2                                                                           
 INPUT CARD>                                                                                
 INPUT CARD>S                                                                               
 INPUT CARD>O 1 1.70                                                                        
 INPUT CARD>O 1 1.70 2 100.0                                                                
 INPUT CARD> $END                                                                           
    1000000 WORDS OF MEMORY AVAILABLE

     BASIS OPTIONS
     -------------
     GBASIS=PC1          IGAUSS=       0      POLAR=NONE    
     NDFUNC=       0     NFFUNC=       0     DIFFSP=       F
     NPFUNC=       0      DIFFS=       F     BASNAM=        


     RUN TITLE
     ---------
 Title                                                                           

 THE POINT GROUP OF THE MOLECULE IS CNV     
 THE ORDER OF THE PRINCIPAL AXIS IS     2

 YOUR FULLY SUBSTITUTED Z-MATRIX IS
 S   
 O      1   1.7000000
 O      1   1.7000000  2  100.0000

 THE MOMENTS OF INERTIA ARE (AMU-ANGSTROM**2)
 IXX=    19.094   IYY=    54.252   IZZ=    73.346

 ATOM      ATOMIC                      COORDINATES (BOHR)
           CHARGE         X                   Y                   Z
 S          16.0     0.0000000000        0.0000000000       -1.0327751079
 O           8.0    -2.4609439563        0.0000000000        1.0322020581
 O           8.0     2.4609439563        0.0000000000        1.0322020581

          INTERNUCLEAR DISTANCES (ANGS.)
          ------------------------------

                1 S          2 O          3 O     

   1 S       0.0000000    1.7000000 *  1.7000000 *
   2 O       1.7000000 *  0.0000000    2.6045511 *
   3 O       1.7000000 *  2.6045511 *  0.0000000  

  * ... LESS THAN  3.000


     ATOMIC BASIS SET
     ----------------
 THE CONTRACTED PRIMITIVE FUNCTIONS HAVE BEEN UNNORMALIZED
 THE CONTRACTED BASIS FUNCTIONS ARE NOW NORMALIZED TO UNITY

  SHELL TYPE  PRIMITIVE        EXPONENT          CONTRACTION COEFFICIENT(S)

 S         

      1   S       1         55510.0000000    0.000587229760
      1   S       2          8326.7000000    0.004532413947
      1   S       3          1895.6000000    0.023265261648
      1   S       4           536.7700000    0.089696133027
      1   S       5           174.6700000    0.254098332277
      1   S       6            62.5780000    0.438665087637
      1   S       7            23.5730000    0.314547135094
      1   S       8             5.8908000    0.032727897102

      2   S       9          8326.7000000   -0.000019755715
      2   S      10          1895.6000000   -0.000043822381
      2   S      11           536.7700000   -0.001730264906
      2   S      12           174.6700000   -0.009381263460
      2   S      13            62.5780000   -0.064050766303
      2   S      14            23.5730000   -0.082478179196
      2   S      15             5.8908000    0.478342956889
      2   S      16             2.1852000    0.626896670208

      3   S      17          1895.6000000    0.000016227260
      3   S      18           536.7700000    0.000191135619
      3   S      19           174.6700000    0.001952069674
      3   S      20            62.5780000    0.010578701087
      3   S      21            23.5730000    0.022164934551
      3   S      22             5.8908000   -0.184968323118
      3   S      23             2.1852000   -0.480920750976
      3   S      24             0.4528200    1.243822243872

      4   S      25             0.1620200    1.000000000000

      5   P      26           395.4500000    0.004642761329
      5   P      27            92.8340000    0.036023396489
      5   P      28            29.2660000    0.149058869978
      5   P      29            10.5950000    0.360033266263
      5   P      30             4.0272000    0.455756476221
      5   P      31             1.5484000    0.206167664178

      6   P      32            92.8340000    0.000169901442
      6   P      33            29.2660000   -0.002541839934
      6   P      34            10.5950000   -0.007867614595
      6   P      35             4.0272000   -0.037231009184
      6   P      36             1.5484000    0.161417246830
      6   P      37             0.4613400    0.902230419976

      7   P      38             0.1313100    1.000000000000

      8   D      39             0.5500000    1.000000000000

 O         

     15   S      40          2306.7000000    0.005424388755
     15   S      41           347.1500000    0.040474749465
     15   S      42            78.8900000    0.180219634554
     15   S      43            21.8760000    0.462370311787
     15   S      44             6.6646000    0.454888396263

     16   S      45           347.1500000   -0.000655003786
     16   S      46            78.8900000   -0.005362052952
     16   S      47            21.8760000   -0.074902158894
     16   S      48             6.6646000   -0.181442579655
     16   S      49             1.0669000    1.102006874042

     17   S      50             0.3070000    1.000000000000

     18   P      51            17.0220000    0.068979967443
     18   P      52             3.6838000    0.351985516325
     18   P      53             0.9923400    0.724036547822

     19   P      54             0.2448700    1.000000000000

     20   D      55             1.0000000    1.000000000000

 TOTAL NUMBER OF BASIS SET SHELLS             =   20
 NUMBER OF CARTESIAN GAUSSIAN BASIS FUNCTIONS =   49
 NOTE: THIS RUN WILL RESTRICT THE MO VARIATION SPACE TO SPHERICAL HARMONICS.
 THE NUMBER OF ORBITALS KEPT IN THE VARIATIONAL SPACE WILL BE PRINTED LATER.
 NUMBER OF ELECTRONS                          =   32
 CHARGE OF MOLECULE                           =    0
 SPIN MULTIPLICITY                            =    1
 NUMBER OF OCCUPIED ORBITALS (ALPHA)          =   16
 NUMBER OF OCCUPIED ORBITALS (BETA )          =   16
 TOTAL NUMBER OF ATOMS                        =    3
 THE NUCLEAR REPULSION ENERGY IS       92.6910086104

     LEBEDEV GRID-BASED DFT OPTIONS
     ------------------------------
     DFTTYP=PBE     
     NRAD  =      96     NLEB  =     302
     NRAD0 =      24     NLEB0 =     110
     SWOFF =    5.00E-03 (PURE SCF -> DFT)
     SWITCH=    3.00E-04 (COARSE -> TIGHT GRID)
     THRESH=    0.00E+00 GTHRE=    1.00E+00

 GRIMME'S EMPIRICAL DISPERSION CORRECTION= F

     $CONTRL OPTIONS
     ---------------
 SCFTYP=RHF          RUNTYP=ENERGY       EXETYP=RUN     
 MPLEVL=       0     CITYP =NONE         CCTYP =NONE         VBTYP =NONE    
 DFTTYP=PBE          TDDFT =NONE    
 MULT  =       1     ICHARG=       0     NZVAR =       0     COORD =ZMT     
 PP    =NONE         RELWFN=NONE         LOCAL =NONE         NUMGRD=       F
 ISPHER=       1     NOSYM =       0     MAXIT =      30     UNITS =ANGS    
 PLTORB=       F     MOLPLT=       F     AIMPAC=       F     FRIEND=        
 NPRINT=       7     IREST =       0     GEOM  =INPUT   
 NORMF =       0     NORMP =       0     ITOL  =      20     ICUT  =       9
 INTTYP=BEST         GRDTYP=BEST         QMTTOL= 1.0E-06

     $SYSTEM OPTIONS
     ---------------
  REPLICATED MEMORY=     1000000 WORDS (ON EVERY NODE).
 DISTRIBUTED MEMDDI=           0 MILLION WORDS IN AGGREGATE,
 MEMDDI DISTRIBUTED OVER   1 PROCESSORS IS           0 WORDS/PROCESSOR.
 TOTAL MEMORY REQUESTED ON EACH PROCESSOR=     1000000 WORDS.
 TIMLIM=      525600.00 MINUTES, OR     365.0 DAYS.
 PARALL= F  BALTYP=  DLB     KDIAG=    0  COREFL= F
 MXSEQ2=     300 MXSEQ3=     150

          ----------------
          PROPERTIES INPUT
          ----------------

     MOMENTS            FIELD           POTENTIAL          DENSITY
 IEMOM =       1   IEFLD =       0   IEPOT =       0   IEDEN =       0
 WHERE =COMASS     WHERE =NUCLEI     WHERE =NUCLEI     WHERE =NUCLEI  
 OUTPUT=BOTH       OUTPUT=BOTH       OUTPUT=BOTH       OUTPUT=BOTH    
 IEMINT=       0   IEFINT=       0                     IEDINT=       0
                                                       MORB  =       0
          EXTRAPOLATION IN EFFECT
          DIIS IN EFFECT
 ORBITAL PRINTING OPTION: NPREO=     1    49     2     1

     -------------------------------
     INTEGRAL TRANSFORMATION OPTIONS
     -------------------------------
     NWORD  =            0
     CUTOFF = 1.0E-09     MPTRAN =       0
     DIRTRF =       F     AOINTS =DUP     

          ----------------------
          INTEGRAL INPUT OPTIONS
          ----------------------
 NOPK  =       1 NORDER=       0 SCHWRZ=       F

   --- ENCODED Z MATRIX ---
 COORD  TYPE   I   J   K   L   M   N
    1      1    3   1
    2      1    2   1
    3      2    2   1   3

 THE DETERMINANT OF THE G MATRIX IS 10**(    -4)

 THE DETERMINANT OF THE G MATRIX IS 10**(    -4)
 * * * WARNING * * *
 YOUR B MATRIX HAS A SMALL DETERMINANT.
 THIS SUGGESTS YOU MAY HAVE BADLY CHOSEN COORDINATES.

     ------------------------------------------
     THE POINT GROUP IS CNV, NAXIS= 2, ORDER= 4
     ------------------------------------------

 -- VARIATIONAL SPACE WILL BE RESTRICTED TO PURE SPHERICAL HARMONICS ONLY --
 AFTER EXCLUDING CONTAMINANT COMBINATIONS FROM THE CARTESIAN GAUSSIAN BASIS
 SET, THE NUMBER OF SPHERICAL HARMONICS KEPT IN THE VARIATION SPACE IS   46

     DIMENSIONS OF THE SYMMETRY SUBSPACES ARE
 A1  =   19     A2  =    5     B1  =   14     B2  =    8

 ..... DONE SETTING UP THE RUN .....
 STEP CPU TIME =     0.01 TOTAL CPU TIME =        0.0 (    0.0 MIN)
 TOTAL WALL CLOCK TIME=        0.0 SECONDS, CPU UTILIZATION IS  50.00%

          ********************
          1 ELECTRON INTEGRALS
          ********************
 ...... END OF ONE-ELECTRON INTEGRALS ......
 STEP CPU TIME =     0.00 TOTAL CPU TIME =        0.0 (    0.0 MIN)
 TOTAL WALL CLOCK TIME=        0.0 SECONDS, CPU UTILIZATION IS  50.00%

          -------------
          GUESS OPTIONS
          -------------
          GUESS =HUCKEL            NORB  =       0          NORDER=       0
          MIX   =       F          PRTMO =       F          PUNMO =       F
          TOLZ  = 1.0E-08          TOLE  = 1.0E-05
          SYMDEN=       F          PURIFY=       F

 INITIAL GUESS ORBITALS GENERATED BY HUCKEL   ROUTINE.
 HUCKEL GUESS REQUIRES     21583 WORDS.

 STATISTICS FOR GENERATION OF SYMMETRY ORBITAL -Q- MATRIX
 NUMBER OF CARTESIAN ATOMIC ORBITALS=         49
 NUMBER OF SPHERICAL CONTAMINANTS DROPPED=     3
 NUMBER OF LINEARLY DEPENDENT MOS DROPPED=     0
 TOTAL NUMBER OF MOS IN VARIATION SPACE=      46

 SYMMETRIES FOR INITIAL GUESS ORBITALS FOLLOW.   BOTH SET(S).
    16 ORBITALS ARE OCCUPIED (    7 CORE ORBITALS).
     8=?A1      9=?B1     10=?A1     11=B2      12=B1      13=A1      14=A2  
    15=B1      16=A1      17=B2      18=B1      19=A1      20=A1      21=A1  
    22=A1      23=A1      24=A1      25=A1      26=A1  
 ...... END OF INITIAL ORBITAL SELECTION ......
 STEP CPU TIME =     0.01 TOTAL CPU TIME =        0.0 (    0.0 MIN)
 TOTAL WALL CLOCK TIME=        0.0 SECONDS, CPU UTILIZATION IS  66.67%

                    ----------------------
                    AO INTEGRAL TECHNOLOGY
                    ----------------------
     S,P,L SHELL ROTATED AXIS INTEGRALS, REPROGRAMMED BY
        KAZUYA ISHIMURA (IMS) AND JOSE SIERRA (SYNSTAR).
     S,P,D,L SHELL ROTATED AXIS INTEGRALS PROGRAMMED BY
        KAZUYA ISHIMURA (INSTITUTE FOR MOLECULAR SCIENCE).
     S,P,D,F,G SHELL TO TOTAL QUARTET ANGULAR MOMENTUM SUM 5,
        ERIC PROGRAM BY GRAHAM FLETCHER (ELORET AND NASA ADVANCED
        SUPERCOMPUTING DIVISION, AMES RESEARCH CENTER).
     S,P,D,F,G,L SHELL GENERAL RYS QUADRATURE PROGRAMMED BY
        MICHEL DUPUIS (PACIFIC NORTHWEST NATIONAL LABORATORY).

          --------------------
          2 ELECTRON INTEGRALS
          --------------------

 THE -PK- OPTION IS OFF, THE INTEGRALS ARE NOT IN SUPERMATRIX FORM.
 STORING   15000 INTEGRALS/RECORD ON DISK, USING 12 BYTES/INTEGRAL.
 TWO ELECTRON INTEGRAL EVALUATION REQUIRES   90606 WORDS OF MEMORY.
 II,JST,KST,LST =  1  1  1  1 NREC =         1 INTLOC =    1
 II,JST,KST,LST =  2  1  1  1 NREC =         1 INTLOC =    2
 II,JST,KST,LST =  3  1  1  1 NREC =         1 INTLOC =    7
 II,JST,KST,LST =  4  1  1  1 NREC =         1 INTLOC =   22
 II,JST,KST,LST =  5  1  1  1 NREC =         1 INTLOC =   56
 II,JST,KST,LST =  6  1  1  1 NREC =         1 INTLOC =  125
 II,JST,KST,LST =  7  1  1  1 NREC =         1 INTLOC =  329
 II,JST,KST,LST =  8  1  1  1 NREC =         1 INTLOC =  776
 II,JST,KST,LST =  9  1  1  1 NREC =         1 INTLOC = 2864
 II,JST,KST,LST = 10  1  1  1 NREC =         1 INTLOC = 2864
 II,JST,KST,LST = 11  1  1  1 NREC =         1 INTLOC = 2864
 II,JST,KST,LST = 12  1  1  1 NREC =         1 INTLOC = 2864
 II,JST,KST,LST = 13  1  1  1 NREC =         1 INTLOC = 2864
 II,JST,KST,LST = 14  1  1  1 NREC =         1 INTLOC = 2864
 II,JST,KST,LST = 15  1  1  1 NREC =         1 INTLOC = 2864
 II,JST,KST,LST = 16  1  1  1 NREC =         1 INTLOC = 4987
 II,JST,KST,LST = 17  1  1  1 NREC =         1 INTLOC = 8124
 II,JST,KST,LST = 18  1  1  1 NREC =         1 INTLOC =12529
 II,JST,KST,LST = 19  1  1  1 NREC =         3 INTLOC =   27
 II,JST,KST,LST = 20  1  1  1 NREC =         5 INTLOC = 1008
 TOTAL NUMBER OF NONZERO TWO-ELECTRON INTEGRALS =              175317
         12 INTEGRAL RECORDS WERE STORED ON DISK FILE  8.
  ...... END OF TWO-ELECTRON INTEGRALS .....
 STEP CPU TIME =     0.16 TOTAL CPU TIME =        0.2 (    0.0 MIN)
 TOTAL WALL CLOCK TIME=        0.2 SECONDS, CPU UTILIZATION IS  94.74%

          --------------------------
               R-PBE SCF CALCULATION
          --------------------------

     NUCLEAR ENERGY =        92.6910086104
     MAXIT =   30     NPUNCH=    2
     EXTRAP=T  DAMP=F  SHIFT=F  RSTRCT=F  DIIS=T  DEM=F  SOSCF=F
         DENSITY MATRIX CONVERGENCE THRESHOLD=  1.00E-05
     COARSE -> FINE DFT GRID SWITCH THRESHOLD=  3.00E-04 (SWITCH IN $DFT)
                   HF -> DFT SWITCH THRESHOLD=  5.00E-03 (SWOFF IN $DFT)
     MEMORY REQUIRED FOR RHF ITERS=    183108 WORDS.

 DFT CODE IS SWITCHING FROM THE FINE GRID NRAD= 96,  NLEB=  302
                      TO THE COARSE GRID NRAD0= 24, NLEB0=  110

     EXCHANGE FUNCTIONAL   =PBE       
     CORRELATION FUNCTIONAL=PBE       
     DFT THRESHOLD         =.460E-07
     GRID CHANGE THRESHOLD =.300E-03
 FOR AN EULER-MACLAURIN QUADRATURE USING  96 RADIAL POINTS:
 SMALLEST GAUSSIAN PRIMITIVE EXPONENT=        0.1313100000 OF TYPE -P-
 ON ATOM NUMBER   1 HAS RADIAL NORMALIZATION=  1.000000
  LARGEST GAUSSIAN PRIMITIVE EXPONENT=    55510.0000000000 OF TYPE -S-
 ON ATOM NUMBER   1 HAS RADIAL NORMALIZATION=  0.999999
 DFT IS SWITCHED OFF, PERFORMING PURE SCF UNTIL SWOFF THRESHOLD IS REACHED.

 ITER EX DEM     TOTAL ENERGY        E CHANGE  DENSITY CHANGE    DIIS ERROR
   1  0  0     -545.9576329246  -545.9576329246   0.520670965   1.200931714
          * * *   INITIATING DIIS PROCEDURE   * * *
   2  1  0     -546.3915987890    -0.4339658644   0.589934249   0.467485837
   3  2  0     -546.3202253398     0.0713734492   0.286598682   0.476519646
   4  3  0     -546.9782314631    -0.6580061233   0.028679569   0.015780016
   5  4  0     -546.9797086575    -0.0014771944   0.007383309   0.007529943
   6  5  0     -546.9800671373    -0.0003584798   0.004806140   0.004356012
 CONVERGED TO SWOFF, SO DFT CALCULATION IS NOW SWITCHED ON.
          * * *   INITIATING DIIS PROCEDURE   * * *
   7  6  0     -548.1436470667    -1.1635799294   0.356419278   0.105438457
   8  7  0     -548.1093333075     0.0343137592   0.320679721   0.169697882
   9  8  0     -548.1241252522    -0.0147919446   0.099767933   0.181649939
  10  9  0     -548.1884861645    -0.0643609123   0.018667458   0.012991981
  11 10  0     -548.1892113279    -0.0007251634   0.001241836   0.001553701
  12 11  0     -548.1892182544    -0.0000069265   0.000559135   0.000677461
  13 12  0     -548.1892193059    -0.0000010515   0.000061214   0.000050447
 DFT CODE IS SWITCHING BACK TO THE FINE GRID
          * * *   INITIATING DIIS PROCEDURE   * * *
  14 13  0     -548.1995713581    -0.0103520522   0.016524054   0.010486604
  15 14  0     -548.1996053816    -0.0000340236   0.023131569   0.012552200
  16 15  0     -548.1992470788     0.0003583028   0.014749490   0.017933453
  17 16  0     -548.1999310281    -0.0006839492   0.000562924   0.000693963
  18 17  0     -548.1999320439    -0.0000010158   0.000161632   0.000119174
  19 18  0     -548.1999321057    -0.0000000618   0.000030033   0.000012599
  20 19  0     -548.1999321061    -0.0000000004   0.000005979   0.000005800
  21 20  0     -548.1999321062    -0.0000000001   0.000000294   0.000000186

          -----------------
          DENSITY CONVERGED
          -----------------
     TIME TO FORM FOCK OPERATORS=       4.3 SECONDS (       0.2 SEC/ITER)
     TIME TO SOLVE SCF EQUATIONS=       0.0 SECONDS (       0.0 SEC/ITER)

 FINAL R-PBE ENERGY IS     -548.1999321062 AFTER  21 ITERATIONS
 DFT EXCHANGE + CORRELATION ENERGY =       -42.2694369551
 TOTAL ELECTRON NUMBER             =        32.0000042121

          ------------
          EIGENVECTORS
          ------------

                      1          2          3          4          5
                  -88.2222   -18.8128   -18.8128    -7.8447    -5.8655
                     A1         A1         B1         A1         B1  
    1  S  1  S    1.002979  -0.000087   0.000000  -0.274101   0.000000
    2  S  1  S   -0.010266  -0.001248   0.000000   1.039616   0.000000
    3  S  1  S    0.001802  -0.002396   0.000000   0.040801   0.000000
    4  S  1  S   -0.000984   0.009491   0.000000  -0.012809   0.000000
    5  S  1  X    0.000000   0.000000   0.000110   0.000000   0.996824
    6  S  1  Y    0.000000   0.000000   0.000000   0.000000   0.000000
    7  S  1  Z    0.000052  -0.000133   0.000000   0.007746   0.000000
    8  S  1  X    0.000000   0.000000  -0.001035   0.000000   0.009080
    9  S  1  Y    0.000000   0.000000   0.000000   0.000000   0.000000
   10  S  1  Z    0.000038   0.000968   0.000000   0.000779   0.000000
   11  S  1  X    0.000000   0.000000  -0.003629   0.000000  -0.000221
   12  S  1  Y    0.000000   0.000000   0.000000   0.000000   0.000000
   13  S  1  Z   -0.000102   0.004683   0.000000  -0.000980   0.000000
   14  S  1 XX    0.000008   0.000800   0.000000   0.000269   0.000000
   15  S  1 YY    0.000000  -0.001282   0.000000  -0.000150   0.000000
   16  S  1 ZZ   -0.000008   0.000483   0.000000  -0.000119   0.000000
   17  S  1 XY    0.000000   0.000000   0.000000   0.000000   0.000000
   18  S  1 XZ    0.000000   0.000000  -0.001274   0.000000   0.000414
   19  S  1 YZ    0.000000   0.000000   0.000000   0.000000   0.000000
   20  O  2  S    0.000001   0.703292   0.703235   0.000019   0.000083
   21  O  2  S   -0.000010   0.025633   0.025091  -0.000142   0.000050
   22  O  2  S    0.000111  -0.012423  -0.010396   0.001020  -0.000099
   23  O  2  X   -0.000002   0.000648   0.000706  -0.000156  -0.000055
   24  O  2  Y    0.000000   0.000000   0.000000   0.000000   0.000000
   25  O  2  Z   -0.000003  -0.000573  -0.000637   0.000087   0.000050
   26  O  2  X   -0.000007  -0.002905  -0.001767  -0.000180  -0.000075
   27  O  2  Y    0.000000   0.000000   0.000000   0.000000   0.000000
   28  O  2  Z    0.000032   0.001864   0.001858   0.000409   0.000050
   29  O  2 XX   -0.000028  -0.000257  -0.000125  -0.000271  -0.000082
   30  O  2 YY    0.000042   0.000220   0.000238   0.000402   0.000125
   31  O  2 ZZ   -0.000014   0.000038  -0.000113  -0.000131  -0.000044
   32  O  2 XY    0.000000   0.000000   0.000000   0.000000   0.000000
   33  O  2 XZ    0.000073   0.000389   0.000316   0.000686   0.000210
   34  O  2 YZ    0.000000   0.000000   0.000000   0.000000   0.000000
   35  O  3  S    0.000001   0.703292  -0.703235   0.000019  -0.000083
   36  O  3  S   -0.000010   0.025633  -0.025091  -0.000142  -0.000050
   37  O  3  S    0.000111  -0.012423   0.010396   0.001020   0.000099
   38  O  3  X    0.000002  -0.000648   0.000706   0.000156  -0.000055
   39  O  3  Y    0.000000   0.000000   0.000000   0.000000   0.000000
   40  O  3  Z   -0.000003  -0.000573   0.000637   0.000087  -0.000050
   41  O  3  X    0.000007   0.002905  -0.001767   0.000180  -0.000075
   42  O  3  Y    0.000000   0.000000   0.000000   0.000000   0.000000
   43  O  3  Z    0.000032   0.001864  -0.001858   0.000409  -0.000050
   44  O  3 XX   -0.000028  -0.000257   0.000125  -0.000271   0.000082
   45  O  3 YY    0.000042   0.000220  -0.000238   0.000402  -0.000125
   46  O  3 ZZ   -0.000014   0.000038   0.000113  -0.000131   0.000044
   47  O  3 XY    0.000000   0.000000   0.000000   0.000000   0.000000
   48  O  3 XZ   -0.000073  -0.000389   0.000316  -0.000686   0.000210
   49  O  3 YZ    0.000000   0.000000   0.000000   0.000000   0.000000

                      6          7          8          9         10
                   -5.8638    -5.8612    -0.9548    -0.8838    -0.6407
                     B2         A1         A1         B1         A1  
    1  S  1  S    0.000000   0.002097   0.044894   0.000000   0.073213
    2  S  1  S    0.000000  -0.008219  -0.128742   0.000000  -0.207948
    3  S  1  S    0.000000  -0.000495   0.267500   0.000000   0.459447
    4  S  1  S    0.000000  -0.000103   0.169042   0.000000   0.440426
    5  S  1  X    0.000000   0.000000   0.000000   0.081514   0.000000
    6  S  1  Y    0.996882   0.000000   0.000000   0.000000   0.000000
    7  S  1  Z    0.000000   0.996881  -0.053188   0.000000   0.041439
    8  S  1  X    0.000000   0.000000   0.000000  -0.164829   0.000000
    9  S  1  Y    0.008967   0.000000   0.000000   0.000000   0.000000
   10  S  1  Z    0.000000   0.008806   0.105932   0.000000  -0.085140
   11  S  1  X    0.000000   0.000000   0.000000  -0.032232   0.000000
   12  S  1  Y   -0.000205   0.000000   0.000000   0.000000   0.000000
   13  S  1  Z    0.000000  -0.000247   0.007005   0.000000  -0.059940
   14  S  1 XX    0.000000  -0.000225   0.019399   0.000000  -0.006097
   15  S  1 YY    0.000000  -0.000165  -0.024651   0.000000   0.012766
   16  S  1 ZZ    0.000000   0.000390   0.005252   0.000000  -0.006670
   17  S  1 XY    0.000000   0.000000   0.000000   0.000000   0.000000
   18  S  1 XZ    0.000000   0.000000   0.000000  -0.055125   0.000000
   19  S  1 YZ    0.000320   0.000000   0.000000   0.000000   0.000000
   20  O  2  S    0.000000  -0.000079  -0.126870  -0.152696   0.095261
   21  O  2  S    0.000000  -0.000107   0.251923   0.310144  -0.197398
   22  O  2  S    0.000000   0.000267   0.309813   0.386646  -0.296962
   23  O  2  X    0.000000   0.000069   0.072605   0.052955   0.067873
   24  O  2  Y    0.000007   0.000000   0.000000   0.000000   0.000000
   25  O  2  Z    0.000000  -0.000044  -0.057511  -0.056000  -0.069366
   26  O  2  X    0.000000   0.000121   0.034886   0.025374   0.029170
   27  O  2  Y   -0.000047   0.000000   0.000000   0.000000   0.000000
   28  O  2  Z    0.000000  -0.000188  -0.028749  -0.027938  -0.029306
   29  O  2 XX    0.000000   0.000089   0.004676   0.000600   0.001981
   30  O  2 YY    0.000000  -0.000136  -0.005046  -0.001920  -0.004465
   31  O  2 ZZ    0.000000   0.000047   0.000370   0.001320   0.002483
   32  O  2 XY   -0.000003   0.000000   0.000000   0.000000   0.000000
   33  O  2 XZ    0.000000  -0.000244  -0.012015  -0.008961  -0.005468
   34  O  2 YZ   -0.000002   0.000000   0.000000   0.000000   0.000000
   35  O  3  S    0.000000  -0.000079  -0.126870   0.152696   0.095261
   36  O  3  S    0.000000  -0.000107   0.251923  -0.310144  -0.197398
   37  O  3  S    0.000000   0.000267   0.309813  -0.386646  -0.296962
   38  O  3  X    0.000000  -0.000069  -0.072605   0.052955  -0.067873
   39  O  3  Y    0.000007   0.000000   0.000000   0.000000   0.000000
   40  O  3  Z    0.000000  -0.000044  -0.057511   0.056000  -0.069366
   41  O  3  X    0.000000  -0.000121  -0.034886   0.025374  -0.029170
   42  O  3  Y   -0.000047   0.000000   0.000000   0.000000   0.000000
   43  O  3  Z    0.000000  -0.000188  -0.028749   0.027938  -0.029306
   44  O  3 XX    0.000000   0.000089   0.004676  -0.000600   0.001981
   45  O  3 YY    0.000000  -0.000136  -0.005046   0.001920  -0.004465
   46  O  3 ZZ    0.000000   0.000047   0.000370  -0.001320   0.002483
   47  O  3 XY    0.000003   0.000000   0.000000   0.000000   0.000000
   48  O  3 XZ    0.000000   0.000244   0.012015  -0.008961   0.005468
   49  O  3 YZ   -0.000002   0.000000   0.000000   0.000000   0.000000

                     11         12         13         14         15
                   -0.4219    -0.4074    -0.3967    -0.2972    -0.2917
                     B1         A1         B2         A2         A1  
    1  S  1  S    0.000000  -0.008861   0.000000   0.000000   0.011809
    2  S  1  S    0.000000   0.050675   0.000000   0.000000  -0.051107
    3  S  1  S    0.000000  -0.022237   0.000000   0.000000   0.054060
    4  S  1  S    0.000000  -0.246674   0.000000   0.000000   0.244490
    5  S  1  X   -0.186874   0.000000   0.000000   0.000000   0.000000
    6  S  1  Y    0.000000   0.000000  -0.213708   0.000000   0.000000
    7  S  1  Z    0.000000  -0.206895   0.000000   0.000000   0.059124
    8  S  1  X    0.442362   0.000000   0.000000   0.000000   0.000000
    9  S  1  Y    0.000000   0.000000   0.503829   0.000000   0.000000
   10  S  1  Z    0.000000   0.487622   0.000000   0.000000  -0.143669
   11  S  1  X    0.162168   0.000000   0.000000   0.000000   0.000000
   12  S  1  Y    0.000000   0.000000   0.318349   0.000000   0.000000
   13  S  1  Z    0.000000   0.221898   0.000000   0.000000  -0.038287
   14  S  1 XX    0.000000  -0.013528   0.000000   0.000000  -0.101932
   15  S  1 YY    0.000000  -0.020845   0.000000   0.000000   0.030681
   16  S  1 ZZ    0.000000   0.034373   0.000000   0.000000   0.071251
   17  S  1 XY    0.000000   0.000000   0.000000  -0.082318   0.000000
   18  S  1 XZ    0.043940   0.000000   0.000000   0.000000   0.000000
   19  S  1 YZ    0.000000   0.000000   0.037270   0.000000   0.000000
   20  O  2  S   -0.055599   0.036869   0.000000   0.000000  -0.002192
   21  O  2  S    0.112345  -0.075179   0.000000   0.000000   0.005968
   22  O  2  S    0.211954  -0.135363   0.000000   0.000000  -0.011950
   23  O  2  X   -0.205108   0.306307   0.000000   0.000000   0.115038
   24  O  2  Y    0.000000   0.000000   0.279213   0.475158   0.000000
   25  O  2  Z    0.281396  -0.040289   0.000000   0.000000   0.440133
   26  O  2  X   -0.123029   0.194091   0.000000   0.000000   0.083957
   27  O  2  Y    0.000000   0.000000   0.171417   0.338139   0.000000
   28  O  2  Z    0.165778  -0.027895   0.000000   0.000000   0.325565
   29  O  2 XX    0.000498   0.014161   0.000000   0.000000   0.009474
   30  O  2 YY    0.007411  -0.006294   0.000000   0.000000   0.003443
   31  O  2 ZZ   -0.007908  -0.007867   0.000000   0.000000  -0.012917
   32  O  2 XY    0.000000   0.000000   0.013150   0.010878   0.000000
   33  O  2 XZ    0.011266  -0.007398   0.000000   0.000000   0.008237
   34  O  2 YZ    0.000000   0.000000  -0.010934  -0.011439   0.000000
   35  O  3  S    0.055599   0.036869   0.000000   0.000000  -0.002192
   36  O  3  S   -0.112345  -0.075179   0.000000   0.000000   0.005968
   37  O  3  S   -0.211954  -0.135363   0.000000   0.000000  -0.011950
   38  O  3  X   -0.205108  -0.306307   0.000000   0.000000  -0.115038
   39  O  3  Y    0.000000   0.000000   0.279213  -0.475158   0.000000
   40  O  3  Z   -0.281396  -0.040289   0.000000   0.000000   0.440133
   41  O  3  X   -0.123029  -0.194091   0.000000   0.000000  -0.083957
   42  O  3  Y    0.000000   0.000000   0.171417  -0.338139   0.000000
   43  O  3  Z   -0.165778  -0.027895   0.000000   0.000000   0.325565
   44  O  3 XX   -0.000498   0.014161   0.000000   0.000000   0.009474
   45  O  3 YY   -0.007411  -0.006294   0.000000   0.000000   0.003443
   46  O  3 ZZ    0.007908  -0.007867   0.000000   0.000000  -0.012917
   47  O  3 XY    0.000000   0.000000  -0.013150   0.010878   0.000000
   48  O  3 XZ    0.011266   0.007398   0.000000   0.000000  -0.008237
   49  O  3 YZ    0.000000   0.000000  -0.010934   0.011439   0.000000

                     16         17         18         19         20
                   -0.2674    -0.2188    -0.0949    -0.0583     0.3370
                     B1         B2         B1         A1         A1  
    1  S  1  S    0.000000   0.000000   0.000000   0.032365  -0.005805
    2  S  1  S    0.000000   0.000000   0.000000  -0.098880  -0.080477
    3  S  1  S    0.000000   0.000000   0.000000   0.211944  -0.161956
    4  S  1  S    0.000000   0.000000   0.000000   0.552087   0.532326
    5  S  1  X   -0.015352   0.000000  -0.205367   0.000000   0.000000
    6  S  1  Y    0.000000  -0.197031   0.000000   0.000000   0.000000
    7  S  1  Z    0.000000   0.000000   0.000000  -0.182492   0.276375
    8  S  1  X    0.029188   0.000000   0.519108   0.000000   0.000000
    9  S  1  Y    0.000000   0.491899   0.000000   0.000000   0.000000
   10  S  1  Z    0.000000   0.000000   0.000000   0.468708  -1.055173
   11  S  1  X    0.145627   0.000000   0.725545   0.000000   0.000000
   12  S  1  Y    0.000000   0.383606   0.000000   0.000000   0.000000
   13  S  1  Z    0.000000   0.000000   0.000000   0.709764   1.431078
   14  S  1 XX    0.000000   0.000000   0.000000  -0.071524   0.131639
   15  S  1 YY    0.000000   0.000000   0.000000   0.148839   0.094060
   16  S  1 ZZ    0.000000   0.000000   0.000000  -0.077315  -0.225699
   17  S  1 XY    0.000000   0.000000   0.000000   0.000000   0.000000
   18  S  1 XZ   -0.072289   0.000000  -0.171431   0.000000   0.000000
   19  S  1 YZ    0.000000  -0.062738   0.000000   0.000000   0.000000
   20  O  2  S   -0.004156   0.000000  -0.034165   0.044135   0.013779
   21  O  2  S    0.006935   0.000000   0.057853  -0.075456   0.035082
   22  O  2  S    0.049267   0.000000   0.299686  -0.363612  -0.438957
   23  O  2  X    0.421159   0.000000   0.091912  -0.347334   0.160029
   24  O  2  Y    0.000000  -0.393804   0.000000   0.000000   0.000000
   25  O  2  Z    0.239017   0.000000  -0.331107   0.133585  -0.093276
   26  O  2  X    0.295369   0.000000   0.099220  -0.365624  -0.234318
   27  O  2  Y    0.000000  -0.309663   0.000000   0.000000   0.000000
   28  O  2  Z    0.155521   0.000000  -0.300263   0.125981   0.018674
   29  O  2 XX    0.012227   0.000000   0.002574   0.002131  -0.034955
   30  O  2 YY   -0.000821   0.000000   0.001071   0.002750   0.021940
   31  O  2 ZZ   -0.011406   0.000000  -0.003645  -0.004881   0.013015
   32  O  2 XY    0.000000  -0.002996   0.000000   0.000000   0.000000
   33  O  2 XZ   -0.003556   0.000000  -0.000386  -0.000301   0.022576
   34  O  2 YZ    0.000000   0.001579   0.000000   0.000000   0.000000
   35  O  3  S    0.004156   0.000000   0.034165   0.044135   0.013779
   36  O  3  S   -0.006935   0.000000  -0.057853  -0.075456   0.035082
   37  O  3  S   -0.049267   0.000000  -0.299686  -0.363612  -0.438957
   38  O  3  X    0.421159   0.000000   0.091912   0.347334  -0.160029
   39  O  3  Y    0.000000  -0.393804   0.000000   0.000000   0.000000
   40  O  3  Z   -0.239017   0.000000   0.331107   0.133585  -0.093276
   41  O  3  X    0.295369   0.000000   0.099220   0.365624   0.234318
   42  O  3  Y    0.000000  -0.309663   0.000000   0.000000   0.000000
   43  O  3  Z   -0.155521   0.000000   0.300263   0.125981   0.018674
   44  O  3 XX   -0.012227   0.000000  -0.002574   0.002131  -0.034955
   45  O  3 YY    0.000821   0.000000  -0.001071   0.002750   0.021940
   46  O  3 ZZ    0.011406   0.000000   0.003645  -0.004881   0.013015
   47  O  3 XY    0.000000   0.002996   0.000000   0.000000   0.000000
   48  O  3 XZ   -0.003556   0.000000  -0.000386   0.000301  -0.022576
   49  O  3 YZ    0.000000   0.001579   0.000000   0.000000   0.000000

                     21         22         23         24         25
                    0.3461     0.3571     0.3994     0.4821     0.4920
                     B1         B2         A1         A2         B2  
    1  S  1  S    0.000000   0.000000  -0.107674   0.000000   0.000000
    2  S  1  S    0.000000   0.000000  -0.397913   0.000000   0.000000
    3  S  1  S    0.000000   0.000000  -1.674119   0.000000   0.000000
    4  S  1  S    0.000000   0.000000   2.089570   0.000000   0.000000
    5  S  1  X    0.289386   0.000000   0.000000   0.000000   0.000000
    6  S  1  Y    0.000000   0.288954   0.000000   0.000000   0.065414
    7  S  1  Z    0.000000   0.000000  -0.048096   0.000000   0.000000
    8  S  1  X   -1.102808   0.000000   0.000000   0.000000   0.000000
    9  S  1  Y    0.000000  -1.118289   0.000000   0.000000  -0.255116
   10  S  1  Z    0.000000   0.000000   0.176021   0.000000   0.000000
   11  S  1  X    1.430024   0.000000   0.000000   0.000000   0.000000
   12  S  1  Y    0.000000   1.228480   0.000000   0.000000   0.218613
   13  S  1  Z    0.000000   0.000000   0.130404   0.000000   0.000000
   14  S  1 XX    0.000000   0.000000  -0.243922   0.000000   0.000000
   15  S  1 YY    0.000000   0.000000   0.355088   0.000000   0.000000
   16  S  1 ZZ    0.000000   0.000000  -0.111166   0.000000   0.000000
   17  S  1 XY    0.000000   0.000000   0.000000   0.901502   0.000000
   18  S  1 XZ   -0.021024   0.000000   0.000000   0.000000   0.000000
   19  S  1 YZ    0.000000  -0.224348   0.000000   0.000000   0.880807
   20  O  2  S   -0.009144   0.000000   0.018630   0.000000   0.000000
   21  O  2  S   -0.034403   0.000000  -0.043583   0.000000   0.000000
   22  O  2  S    0.404428   0.000000  -0.285149   0.000000   0.000000
   23  O  2  X   -0.208144   0.000000   0.052366   0.000000   0.000000
   24  O  2  Y    0.000000  -0.035984   0.000000   0.287248  -0.287808
   25  O  2  Z    0.079905   0.000000  -0.087586   0.000000   0.000000
   26  O  2  X    0.042977   0.000000  -0.159400   0.000000   0.000000
   27  O  2  Y    0.000000  -0.120047   0.000000  -0.136516   0.133831
   28  O  2  Z   -0.146281   0.000000   0.124383   0.000000   0.000000
   29  O  2 XX    0.008151   0.000000  -0.014198   0.000000   0.000000
   30  O  2 YY   -0.019348   0.000000   0.030031   0.000000   0.000000
   31  O  2 ZZ    0.011197   0.000000  -0.015833   0.000000   0.000000
   32  O  2 XY    0.000000  -0.018932   0.000000  -0.030413   0.039427
   33  O  2 XZ   -0.036097   0.000000   0.037132   0.000000   0.000000
   34  O  2 YZ    0.000000   0.011093   0.000000   0.042067  -0.013825
   35  O  3  S    0.009144   0.000000   0.018630   0.000000   0.000000
   36  O  3  S    0.034403   0.000000  -0.043583   0.000000   0.000000
   37  O  3  S   -0.404428   0.000000  -0.285149   0.000000   0.000000
   38  O  3  X   -0.208144   0.000000  -0.052366   0.000000   0.000000
   39  O  3  Y    0.000000  -0.035984   0.000000  -0.287248  -0.287808
   40  O  3  Z   -0.079905   0.000000  -0.087586   0.000000   0.000000
   41  O  3  X    0.042977   0.000000   0.159400   0.000000   0.000000
   42  O  3  Y    0.000000  -0.120047   0.000000   0.136516   0.133831
   43  O  3  Z    0.146281   0.000000   0.124383   0.000000   0.000000
   44  O  3 XX   -0.008151   0.000000  -0.014198   0.000000   0.000000
   45  O  3 YY    0.019348   0.000000   0.030031   0.000000   0.000000
   46  O  3 ZZ   -0.011197   0.000000  -0.015833   0.000000   0.000000
   47  O  3 XY    0.000000   0.018932   0.000000  -0.030413  -0.039427
   48  O  3 XZ   -0.036097   0.000000  -0.037132   0.000000   0.000000
   49  O  3 YZ    0.000000   0.011093   0.000000  -0.042067  -0.013825

                     26         27         28         29         30
                    0.4922     0.6433     0.6936     0.7781     0.8132
                     A1         A1         B1         A1         A2  
    1  S  1  S    0.003388  -0.036773   0.000000  -0.014108   0.000000
    2  S  1  S    0.007653  -0.240415   0.000000  -0.033546   0.000000
    3  S  1  S    0.046885  -0.701938   0.000000  -0.205848   0.000000
    4  S  1  S   -0.033940   1.546333   0.000000  -0.140335   0.000000
    5  S  1  X    0.000000   0.000000  -0.052501   0.000000   0.000000
    6  S  1  Y    0.000000   0.000000   0.000000   0.000000   0.000000
    7  S  1  Z    0.072981  -0.040284   0.000000   0.017375   0.000000
    8  S  1  X    0.000000   0.000000   0.239789   0.000000   0.000000
    9  S  1  Y    0.000000   0.000000   0.000000   0.000000   0.000000
   10  S  1  Z   -0.283310   0.154557   0.000000  -0.113060   0.000000
   11  S  1  X    0.000000   0.000000   0.498523   0.000000   0.000000
   12  S  1  Y    0.000000   0.000000   0.000000   0.000000   0.000000
   13  S  1  Z    0.261972   0.529358   0.000000  -0.320193   0.000000
   14  S  1 XX   -0.614897   0.586483   0.000000   0.480351   0.000000
   15  S  1 YY   -0.136854  -0.893806   0.000000  -0.055401   0.000000
   16  S  1 ZZ    0.751752   0.307323   0.000000  -0.424950   0.000000
   17  S  1 XY    0.000000   0.000000   0.000000   0.000000   0.447313
   18  S  1 XZ    0.000000   0.000000   0.919958   0.000000   0.000000
   19  S  1 YZ    0.000000   0.000000   0.000000   0.000000   0.000000
   20  O  2  S   -0.000216   0.059951  -0.060660  -0.005870   0.000000
   21  O  2  S   -0.002290  -0.264445   0.275096   0.004044   0.000000
   22  O  2  S   -0.035645  -0.318671   0.190992   0.101151   0.000000
   23  O  2  X   -0.207086   0.072904  -0.124570  -0.529437   0.000000
   24  O  2  Y    0.000000   0.000000   0.000000   0.000000  -0.583830
   25  O  2  Z   -0.315064  -0.063081   0.102941  -0.165756   0.000000
   26  O  2  X    0.102450  -0.503320   0.554267   0.725780   0.000000
   27  O  2  Y    0.000000   0.000000   0.000000   0.000000   0.765468
   28  O  2  Z    0.125720   0.380822  -0.483599   0.227024   0.000000
   29  O  2 XX    0.046437  -0.003192  -0.023054  -0.042780   0.000000
   30  O  2 YY    0.000322  -0.010662   0.015864  -0.002965   0.000000
   31  O  2 ZZ   -0.046759   0.013855   0.007190   0.045745   0.000000
   32  O  2 XY    0.000000   0.000000   0.000000   0.000000  -0.034649
   33  O  2 XZ    0.020588   0.007407   0.033694   0.012912   0.000000
   34  O  2 YZ    0.000000   0.000000   0.000000   0.000000   0.031304
   35  O  3  S   -0.000216   0.059951   0.060660  -0.005870   0.000000
   36  O  3  S   -0.002290  -0.264445  -0.275096   0.004044   0.000000
   37  O  3  S   -0.035645  -0.318671  -0.190992   0.101151   0.000000
   38  O  3  X    0.207086  -0.072904  -0.124570   0.529437   0.000000
   39  O  3  Y    0.000000   0.000000   0.000000   0.000000   0.583830
   40  O  3  Z   -0.315064  -0.063081  -0.102941  -0.165756   0.000000
   41  O  3  X   -0.102450   0.503320   0.554267  -0.725780   0.000000
   42  O  3  Y    0.000000   0.000000   0.000000   0.000000  -0.765468
   43  O  3  Z    0.125720   0.380822   0.483599   0.227024   0.000000
   44  O  3 XX    0.046437  -0.003192   0.023054  -0.042780   0.000000
   45  O  3 YY    0.000322  -0.010662  -0.015864  -0.002965   0.000000
   46  O  3 ZZ   -0.046759   0.013855  -0.007190   0.045745   0.000000
   47  O  3 XY    0.000000   0.000000   0.000000   0.000000  -0.034649
   48  O  3 XZ   -0.020588  -0.007407   0.033694  -0.012912   0.000000
   49  O  3 YZ    0.000000   0.000000   0.000000   0.000000  -0.031304

                     31         32         33         34         35
                    0.8311     0.8391     0.8458     0.9225     1.5324
                     B2         A1         B1         B1         B1  
    1  S  1  S    0.000000   0.033688   0.000000   0.000000   0.000000
    2  S  1  S    0.000000   0.139811   0.000000   0.000000   0.000000
    3  S  1  S    0.000000   0.561901   0.000000   0.000000   0.000000
    4  S  1  S    0.000000  -0.184810   0.000000   0.000000   0.000000
    5  S  1  X    0.000000   0.000000   0.035436  -0.049301  -0.026932
    6  S  1  Y   -0.026846   0.000000   0.000000   0.000000   0.000000
    7  S  1  Z    0.000000  -0.059524   0.000000   0.000000   0.000000
    8  S  1  X    0.000000   0.000000  -0.234983   0.326058   0.162657
    9  S  1  Y    0.137913   0.000000   0.000000   0.000000   0.000000
   10  S  1  Z    0.000000   0.370098   0.000000   0.000000   0.000000
   11  S  1  X    0.000000   0.000000  -0.086161  -0.640648   0.794105
   12  S  1  Y   -0.571106   0.000000   0.000000   0.000000   0.000000
   13  S  1  Z    0.000000  -0.406435   0.000000   0.000000   0.000000
   14  S  1 XX    0.000000   0.062780   0.000000   0.000000   0.000000
   15  S  1 YY    0.000000   0.275974   0.000000   0.000000   0.000000
   16  S  1 ZZ    0.000000  -0.338755   0.000000   0.000000   0.000000
   17  S  1 XY    0.000000   0.000000   0.000000   0.000000   0.000000
   18  S  1 XZ    0.000000   0.000000   0.395653  -0.375038   0.372966
   19  S  1 YZ   -0.432710   0.000000   0.000000   0.000000   0.000000
   20  O  2  S    0.000000   0.000234  -0.001310   0.008539   0.014630
   21  O  2  S    0.000000  -0.005377  -0.021948   0.045029  -1.138381
   22  O  2  S    0.000000   0.100821   0.029064  -0.264241   1.543221
   23  O  2  X    0.000000   0.227936   0.066011  -0.614175  -0.078890
   24  O  2  Y   -0.578203   0.000000   0.000000   0.000000   0.000000
   25  O  2  Z    0.000000  -0.531610  -0.620716  -0.099455   0.063472
   26  O  2  X    0.000000  -0.236783  -0.010390   0.735431   0.368111
   27  O  2  Y    0.842582   0.000000   0.000000   0.000000   0.000000
   28  O  2  Z    0.000000   0.726720   0.742032   0.286292  -0.388932
   29  O  2 XX    0.000000  -0.009676  -0.016312  -0.038240  -0.076307
   30  O  2 YY    0.000000  -0.021818  -0.003284   0.025253   0.121676
   31  O  2 ZZ    0.000000   0.031494   0.019597   0.012988  -0.045369
   32  O  2 XY   -0.038796   0.000000   0.000000   0.000000   0.000000
   33  O  2 XZ    0.000000  -0.055191  -0.007709  -0.005684   0.160559
   34  O  2 YZ    0.028952   0.000000   0.000000   0.000000   0.000000
   35  O  3  S    0.000000   0.000234   0.001310  -0.008539  -0.014630
   36  O  3  S    0.000000  -0.005377   0.021948  -0.045029   1.138381
   37  O  3  S    0.000000   0.100821  -0.029064   0.264241  -1.543221
   38  O  3  X    0.000000  -0.227936   0.066011  -0.614175  -0.078890
   39  O  3  Y   -0.578203   0.000000   0.000000   0.000000   0.000000
   40  O  3  Z    0.000000  -0.531610   0.620716   0.099455  -0.063472
   41  O  3  X    0.000000   0.236783  -0.010390   0.735431   0.368111
   42  O  3  Y    0.842582   0.000000   0.000000   0.000000   0.000000
   43  O  3  Z    0.000000   0.726720  -0.742032  -0.286292   0.388932
   44  O  3 XX    0.000000  -0.009676   0.016312   0.038240   0.076307
   45  O  3 YY    0.000000  -0.021818   0.003284  -0.025253  -0.121676
   46  O  3 ZZ    0.000000   0.031494  -0.019597  -0.012988   0.045369
   47  O  3 XY    0.038796   0.000000   0.000000   0.000000   0.000000
   48  O  3 XZ    0.000000   0.055191  -0.007709  -0.005684   0.160559
   49  O  3 YZ    0.028952   0.000000   0.000000   0.000000   0.000000

                     36         37         38         39         40
                    1.6634     2.0922     2.0943     2.0943     2.1005
                     A1         B1         B2         A2         A1  
    1  S  1  S   -0.032850   0.000000   0.000000   0.000000   0.001582
    2  S  1  S   -0.319533   0.000000   0.000000   0.000000   0.010952
    3  S  1  S   -0.750313   0.000000   0.000000   0.000000   0.030465
    4  S  1  S    2.072263   0.000000   0.000000   0.000000  -0.081281
    5  S  1  X    0.000000  -0.013908   0.000000   0.000000   0.000000
    6  S  1  Y    0.000000   0.000000  -0.005365   0.000000   0.000000
    7  S  1  Z   -0.022958   0.000000   0.000000   0.000000  -0.002135
    8  S  1  X    0.000000   0.030342   0.000000   0.000000   0.000000
    9  S  1  Y    0.000000   0.000000   0.010773   0.000000   0.000000
   10  S  1  Z    0.113097   0.000000   0.000000   0.000000   0.005171
   11  S  1  X    0.000000   0.139125   0.000000   0.000000   0.000000
   12  S  1  Y    0.000000   0.000000   0.035985   0.000000   0.000000
   13  S  1  Z    0.983534   0.000000   0.000000   0.000000  -0.049310
   14  S  1 XX    0.238337   0.000000   0.000000   0.000000   0.017307
   15  S  1 YY   -0.363389   0.000000   0.000000   0.000000  -0.045309
   16  S  1 ZZ    0.125052   0.000000   0.000000   0.000000   0.028002
   17  S  1 XY    0.000000   0.000000   0.000000   0.032146   0.000000
   18  S  1 XZ    0.000000  -0.030969   0.000000   0.000000   0.000000
   19  S  1 YZ    0.000000   0.000000   0.005824   0.000000   0.000000
   20  O  2  S   -0.001141  -0.000814   0.000000   0.000000   0.001068
   21  O  2  S    1.175749  -0.057703   0.000000   0.000000  -0.046094
   22  O  2  S   -1.879751   0.108118   0.000000   0.000000   0.067496
   23  O  2  X    0.032129   0.024647   0.000000   0.000000  -0.019632
   24  O  2  Y    0.000000   0.000000   0.015855  -0.014481   0.000000
   25  O  2  Z   -0.025833   0.032088   0.000000   0.000000  -0.000581
   26  O  2  X   -0.546373  -0.022151   0.000000   0.000000   0.040994
   27  O  2  Y    0.000000   0.000000  -0.027652   0.022089   0.000000
   28  O  2  Z    0.327911  -0.067729   0.000000   0.000000  -0.002704
   29  O  2 XX    0.108978  -0.343403   0.000000   0.000000  -0.283782
   30  O  2 YY   -0.082637  -0.355625   0.000000   0.000000   0.623622
   31  O  2 ZZ   -0.026341   0.699028   0.000000   0.000000  -0.339839
   32  O  2 XY    0.000000   0.000000   0.327866   0.581306   0.000000
   33  O  2 XZ   -0.187226   0.118429   0.000000   0.000000  -0.331206
   34  O  2 YZ    0.000000   0.000000   0.626789   0.402888   0.000000
   35  O  3  S   -0.001141   0.000814   0.000000   0.000000   0.001068
   36  O  3  S    1.175749   0.057703   0.000000   0.000000  -0.046094
   37  O  3  S   -1.879751  -0.108118   0.000000   0.000000   0.067496
   38  O  3  X   -0.032129   0.024647   0.000000   0.000000   0.019632
   39  O  3  Y    0.000000   0.000000   0.015855   0.014481   0.000000
   40  O  3  Z   -0.025833  -0.032088   0.000000   0.000000  -0.000581
   41  O  3  X    0.546373  -0.022151   0.000000   0.000000  -0.040994
   42  O  3  Y    0.000000   0.000000  -0.027652  -0.022089   0.000000
   43  O  3  Z    0.327911   0.067729   0.000000   0.000000  -0.002704
   44  O  3 XX    0.108978   0.343403   0.000000   0.000000  -0.283782
   45  O  3 YY   -0.082637   0.355625   0.000000   0.000000   0.623622
   46  O  3 ZZ   -0.026341  -0.699028   0.000000   0.000000  -0.339839
   47  O  3 XY    0.000000   0.000000  -0.327866   0.581306   0.000000
   48  O  3 XZ    0.187226   0.118429   0.000000   0.000000   0.331206
   49  O  3 YZ    0.000000   0.000000   0.626789  -0.402888   0.000000

                     41         42         43         44         45
                    2.1062     2.1436     2.1664     2.2468     2.4813
                     B1         A2         B2         A1         A1  
    1  S  1  S    0.000000   0.000000   0.000000  -0.006842   0.014275
    2  S  1  S    0.000000   0.000000   0.000000  -0.037877  -0.152537
    3  S  1  S    0.000000   0.000000   0.000000  -0.123330  -0.021991
    4  S  1  S    0.000000   0.000000   0.000000   0.199603   1.129678
    5  S  1  X    0.003837   0.000000   0.000000   0.000000   0.000000
    6  S  1  Y    0.000000   0.000000   0.024422   0.000000   0.000000
    7  S  1  Z    0.000000   0.000000   0.000000  -0.010071  -0.119286
    8  S  1  X    0.013371   0.000000   0.000000   0.000000   0.000000
    9  S  1  Y    0.000000   0.000000  -0.049012   0.000000   0.000000
   10  S  1  Z    0.000000   0.000000   0.000000  -0.003403   0.489649
   11  S  1  X   -0.092436   0.000000   0.000000   0.000000   0.000000
   12  S  1  Y    0.000000   0.000000  -0.159480   0.000000   0.000000
   13  S  1  Z    0.000000   0.000000   0.000000   0.236496   0.421504
   14  S  1 XX    0.000000   0.000000   0.000000  -0.288143   0.266131
   15  S  1 YY    0.000000   0.000000   0.000000  -0.019288  -0.405124
   16  S  1 ZZ    0.000000   0.000000   0.000000   0.307431   0.138992
   17  S  1 XY    0.000000  -0.260427   0.000000   0.000000   0.000000
   18  S  1 XZ    0.010593   0.000000   0.000000   0.000000   0.000000
   19  S  1 YZ    0.000000   0.000000  -0.238270   0.000000   0.000000
   20  O  2  S    0.000858   0.000000   0.000000   0.001998   0.014362
   21  O  2  S   -0.021126   0.000000   0.000000   0.061443   0.580930
   22  O  2  S    0.000256   0.000000   0.000000  -0.152300  -1.034666
   23  O  2  X   -0.055560   0.000000   0.000000   0.008695   0.066682
   24  O  2  Y    0.000000   0.036851  -0.049677   0.000000   0.000000
   25  O  2  Z   -0.024768   0.000000   0.000000   0.036814  -0.056202
   26  O  2  X    0.087399   0.000000   0.000000  -0.083270  -0.470657
   27  O  2  Y    0.000000  -0.068298   0.114497   0.000000   0.000000
   28  O  2  Z    0.046835   0.000000   0.000000  -0.075558   0.343947
   29  O  2 XX    0.567132   0.000000   0.000000  -0.571860  -0.328774
   30  O  2 YY   -0.499165   0.000000   0.000000  -0.059630   0.345399
   31  O  2 ZZ   -0.067967   0.000000   0.000000   0.631490  -0.016624
   32  O  2 XY    0.000000  -0.407414   0.633244   0.000000   0.000000
   33  O  2 XZ    0.342671   0.000000   0.000000  -0.181828   0.611102
   34  O  2 YZ    0.000000   0.584519  -0.334730   0.000000   0.000000
   35  O  3  S   -0.000858   0.000000   0.000000   0.001998   0.014362
   36  O  3  S    0.021126   0.000000   0.000000   0.061443   0.580930
   37  O  3  S   -0.000256   0.000000   0.000000  -0.152300  -1.034666
   38  O  3  X   -0.055560   0.000000   0.000000  -0.008695  -0.066682
   39  O  3  Y    0.000000  -0.036851  -0.049677   0.000000   0.000000
   40  O  3  Z    0.024768   0.000000   0.000000   0.036814  -0.056202
   41  O  3  X    0.087399   0.000000   0.000000   0.083270   0.470657
   42  O  3  Y    0.000000   0.068298   0.114497   0.000000   0.000000
   43  O  3  Z   -0.046835   0.000000   0.000000  -0.075558   0.343947
   44  O  3 XX   -0.567132   0.000000   0.000000  -0.571860  -0.328774
   45  O  3 YY    0.499165   0.000000   0.000000  -0.059630   0.345399
   46  O  3 ZZ    0.067967   0.000000   0.000000   0.631490  -0.016624
   47  O  3 XY    0.000000  -0.407414  -0.633244   0.000000   0.000000
   48  O  3 XZ    0.342671   0.000000   0.000000   0.181828  -0.611102
   49  O  3 YZ    0.000000  -0.584519  -0.334730   0.000000   0.000000

                     46
                    2.5969
                     B1  
    1  S  1  S    0.000000
    2  S  1  S    0.000000
    3  S  1  S    0.000000
    4  S  1  S    0.000000
    5  S  1  X   -0.142571
    6  S  1  Y    0.000000
    7  S  1  Z    0.000000
    8  S  1  X    0.591709
    9  S  1  Y    0.000000
   10  S  1  Z    0.000000
   11  S  1  X    0.357097
   12  S  1  Y    0.000000
   13  S  1  Z    0.000000
   14  S  1 XX    0.000000
   15  S  1 YY    0.000000
   16  S  1 ZZ    0.000000
   17  S  1 XY    0.000000
   18  S  1 XZ    0.638186
   19  S  1 YZ    0.000000
   20  O  2  S   -0.016498
   21  O  2  S   -0.501293
   22  O  2  S    0.859174
   23  O  2  X   -0.050967
   24  O  2  Y    0.000000
   25  O  2  Z    0.039995
   26  O  2  X    0.400920
   27  O  2  Y    0.000000
   28  O  2  Z   -0.363194
   29  O  2 XX    0.268399
   30  O  2 YY   -0.369048
   31  O  2 ZZ    0.100650
   32  O  2 XY    0.000000
   33  O  2 XZ   -0.651546
   34  O  2 YZ    0.000000
   35  O  3  S    0.016498
   36  O  3  S    0.501293
   37  O  3  S   -0.859174
   38  O  3  X   -0.050967
   39  O  3  Y    0.000000
   40  O  3  Z   -0.039995
   41  O  3  X    0.400920
   42  O  3  Y    0.000000
   43  O  3  Z    0.363194
   44  O  3 XX   -0.268399
   45  O  3 YY    0.369048
   46  O  3 ZZ   -0.100650
   47  O  3 XY    0.000000
   48  O  3 XZ   -0.651546
   49  O  3 YZ    0.000000
 ...... END OF RHF CALCULATION ......
 STEP CPU TIME =     4.29 TOTAL CPU TIME =        4.5 (    0.1 MIN)
 TOTAL WALL CLOCK TIME=        4.5 SECONDS, CPU UTILIZATION IS  99.78%

     ---------------------------------------------------------------------
     PROPERTIES FOR THE PBE      DFT FUNCTIONAL (RHF  TYPE) DENSITY MATRIX
     ---------------------------------------------------------------------

          -----------------
          ENERGY COMPONENTS
          -----------------

         WAVEFUNCTION NORMALIZATION =       1.0000000000

                ONE ELECTRON ENERGY =    -940.0655542424
                TWO ELECTRON ENERGY =     299.1746135258
           NUCLEAR REPULSION ENERGY =      92.6910086104
                                      ------------------
                       TOTAL ENERGY =    -548.1999321062

 ELECTRON-ELECTRON POTENTIAL ENERGY =     299.1746135258
  NUCLEUS-ELECTRON POTENTIAL ENERGY =   -1486.9849218637
   NUCLEUS-NUCLEUS POTENTIAL ENERGY =      92.6910086104
                                      ------------------
             TOTAL POTENTIAL ENERGY =   -1095.1192997275
               TOTAL KINETIC ENERGY =     546.9193676213
                 VIRIAL RATIO (V/T) =       2.0023414137

          ---------------------------------------
          MULLIKEN AND LOWDIN POPULATION ANALYSES
          ---------------------------------------

     ATOMIC MULLIKEN POPULATION IN EACH MOLECULAR ORBITAL

                      1          2          3          4          5

                  2.000000   2.000000   2.000000   2.000000   2.000000

    1             2.000000   0.001235   0.000589   2.000106   1.999964
    2             0.000000   0.999383   0.999706  -0.000053   0.000018
    3             0.000000   0.999383   0.999706  -0.000053   0.000018

                      6          7          8          9         10

                  2.000000   2.000000   2.000000   2.000000   2.000000

    1             2.000003   1.999943   0.600225   0.197976   1.269403
    2            -0.000002   0.000029   0.699887   0.901012   0.365299
    3            -0.000002   0.000029   0.699887   0.901012   0.365299

                     11         12         13         14         15

                  2.000000   2.000000   2.000000   2.000000   2.000000

    1             0.641809   0.973507   1.199073   0.038636   0.170153
    2             0.679096   0.513246   0.400463   0.980682   0.914923
    3             0.679096   0.513246   0.400463   0.980682   0.914923

                     16

                  2.000000

    1             0.100846
    2             0.949577
    3             0.949577

               ----- POPULATIONS IN EACH AO -----
                             MULLIKEN      LOWDIN
              1  S  1  S      2.00022     1.99596
              2  S  1  S      2.01036     1.97236
              3  S  1  S      1.00156     0.62771
              4  S  1  S      0.85217     0.54900
              5  S  1  X      1.99620     1.95329
              6  S  1  Y      1.99628     1.95662
              7  S  1  Z      1.99677     1.95909
              8  S  1  X      0.64884     0.60067
              9  S  1  Y      0.70157     0.67389
             10  S  1  Z      0.77923     0.74340
             11  S  1  X      0.22309     0.32814
             12  S  1  Y      0.49330     0.53851
             13  S  1  Z      0.29301     0.43198
             14  S  1 XX      0.03699     0.24947
             15  S  1 YY      0.04426     0.24745
             16  S  1 ZZ      0.03864     0.25003
             17  S  1 XY      0.07305     0.04481
             18  S  1 XZ      0.00793     0.09429
             19  S  1 YZ      0.00000     0.00761
             20  O  2  S      1.99805     1.98112
             21  O  2  S      0.85025     0.66770
             22  O  2  S      1.10831     0.59975
             23  O  2  X      0.94092     0.90444
             24  O  2  Y      0.82718     0.79645
             25  O  2  Z      0.94737     0.91361
             26  O  2  X      0.56951     0.63264
             27  O  2  Y      0.55069     0.58867
             28  O  2  Z      0.59858     0.66405
             29  O  2 XX      0.00211     0.20803
             30  O  2 YY      0.00224     0.21241
             31  O  2 ZZ      0.00184     0.20775
             32  O  2 XY      0.00479     0.00239
             33  O  2 XZ      0.00144     0.00711
             34  O  2 YZ      0.00000     0.00177
             35  O  3  S      1.99805     1.98112
             36  O  3  S      0.85025     0.66770
             37  O  3  S      1.10831     0.59975
             38  O  3  X      0.94092     0.90444
             39  O  3  Y      0.82718     0.79645
             40  O  3  Z      0.94737     0.91361
             41  O  3  X      0.56951     0.63264
             42  O  3  Y      0.55069     0.58867
             43  O  3  Z      0.59858     0.66405
             44  O  3 XX      0.00211     0.20803
             45  O  3 YY      0.00224     0.21241
             46  O  3 ZZ      0.00184     0.20775
             47  O  3 XY      0.00479     0.00239
             48  O  3 XZ      0.00144     0.00711
             49  O  3 YZ      0.00000     0.00177

          ----- MULLIKEN ATOMIC OVERLAP POPULATIONS -----
          (OFF-DIAGONAL ELEMENTS NEED TO BE MULTIPLIED BY 2)

             1           2           3

    1   14.6577289
    2    0.2678691   8.1880485
    3    0.2678691  -0.0526511   8.1880485

          TOTAL MULLIKEN AND LOWDIN ATOMIC POPULATIONS
       ATOM         MULL.POP.    CHARGE          LOW.POP.     CHARGE
    1 S            15.193467    0.806533        15.224254    0.775746
    2 O             8.403266   -0.403266         8.387873   -0.387873
    3 O             8.403266   -0.403266         8.387873   -0.387873

          MULLIKEN SPHERICAL HARMONIC POPULATIONS
       ATOM           S       P       D      F      G      H      I    TOTAL
    1 S             5.86    9.13    0.20   0.00   0.00   0.00   0.00   15.19
    2 O             3.96    4.43    0.01   0.00   0.00   0.00   0.00    8.40
    3 O             3.96    4.43    0.01   0.00   0.00   0.00   0.00    8.40

          -------------------------------
          BOND ORDER AND VALENCE ANALYSIS     BOND ORDER THRESHOLD=0.050
          -------------------------------

                   BOND                       BOND                       BOND
  ATOM PAIR DIST  ORDER      ATOM PAIR DIST  ORDER      ATOM PAIR DIST  ORDER
    1   2  1.700  1.625        1   3  1.700  1.625        2   3  2.605  0.454

                       TOTAL       BONDED        FREE
      ATOM            VALENCE     VALENCE     VALENCE
    1 S                 3.251       3.251       0.000
    2 O                 2.079       2.079       0.000
    3 O                 2.079       2.079       0.000

          ---------------------
          ELECTROSTATIC MOMENTS
          ---------------------

 POINT   1           X           Y           Z (BOHR)    CHARGE
                 0.000000    0.000000    0.000000        0.00 (A.U.)
         DX          DY          DZ         /D/  (DEBYE)
     0.000000    0.000000   -2.949555    2.949555
 ...... END OF PROPERTY EVALUATION ......
 STEP CPU TIME =     0.01 TOTAL CPU TIME =        4.5 (    0.1 MIN)
 TOTAL WALL CLOCK TIME=        4.5 SECONDS, CPU UTILIZATION IS  99.78%
               580000  WORDS OF DYNAMIC MEMORY USED
 EXECUTION OF GAMESS TERMINATED NORMALLY Thu Feb 26 00:19:07 2015
 DDI: 263624 bytes (0.3 MB / 0 MWords) used by master data server.

 ----------------------------------------
 CPU timing information for all processes
 ========================================
 0: 4.462 + 0.27 = 4.490
 ----------------------------------------
 ddikick.x: exited gracefully.
----- accounting info -----
Files used on the master node dftfe.crc.nd.edu were:
-rw-r--r-- 1 pmehta1 campus   37475 Feb 26 00:19 /tmp/gamess.dat
-rw-r--r-- 1 pmehta1 campus     142 Feb 26 00:19 /tmp/gamess.F05
-rw-r--r-- 1 pmehta1 campus 2160288 Feb 26 00:19 /tmp/gamess.F08
-rw-r--r-- 1 pmehta1 campus 1220440 Feb 26 00:19 /tmp/gamess.F10
Thu Feb 26 00:19:10 EST 2015
0.250u 0.166s 0:07.94 5.1%	0+0k 0+104io 0pf+0w
