----- GAMESS execution script 'rungms' -----
This job is running on host dftfe.crc.nd.edu
under operating system Linux at Thu Feb 26 00:16:31 EST 2015
Available scratch disk space (Kbyte units) at beginning of the job is
Filesystem     1K-blocks     Used Available Use% Mounted on
/dev/sda2      147771864 22813252 117452180  17% /
GAMESS temporary binary files will be written to /tmp
GAMESS supplementary output files will be written to /tmp
Copying input file gamess.inp to your run's scratch directory...

 Distributed Data Interface kickoff program.
 Initiating 1 compute processes on 1 nodes to run the following command:
 /opt/crc/gamess/2012R1/gamess/gamess.00.x gamess 

          ******************************************************
          *         GAMESS VERSION =  1 MAY 2012 (R1)          *
          *             FROM IOWA STATE UNIVERSITY             *
          * M.W.SCHMIDT, K.K.BALDRIDGE, J.A.BOATZ, S.T.ELBERT, *
          *   M.S.GORDON, J.H.JENSEN, S.KOSEKI, N.MATSUNAGA,   *
          *          K.A.NGUYEN, S.J.SU, T.L.WINDUS,           *
          *       TOGETHER WITH M.DUPUIS, J.A.MONTGOMERY       *
          *         J.COMPUT.CHEM.  14, 1347-1363(1993)        *
          **************** 64 BIT LINUX VERSION ****************

  SINCE 1993, STUDENTS AND POSTDOCS WORKING AT IOWA STATE UNIVERSITY
  AND ALSO IN THEIR VARIOUS JOBS AFTER LEAVING ISU HAVE MADE IMPORTANT
  CONTRIBUTIONS TO THE CODE:
     IVANA ADAMOVIC, CHRISTINE AIKENS, YURI ALEXEEV, POOJA ARORA,
     ANDREY ASADCHEV, ROB BELL, PRADIPTA BANDYOPADHYAY, JONATHAN BENTZ,
     BRETT BODE, GALINA CHABAN, WEI CHEN, CHEOL HO CHOI, PAUL DAY,
     ALBERT DEFUSCO, TIM DUDLEY, DMITRI FEDOROV, GRAHAM FLETCHER,
     MARK FREITAG, KURT GLAESEMANN, DAN KEMP, GRANT MERRILL,
     NORIYUKI MINEZAWA, JONATHAN MULLIN, TAKESHI NAGATA,
     SEAN NEDD, HEATHER NETZLOFF, BOSILJKA NJEGIC, RYAN OLSON, MIKE PAK,
     JIM SHOEMAKER, LYUDMILA SLIPCHENKO, SAROM SOK, JIE SONG,
     TETSUYA TAKETSUGU, SIMON WEBB, SOOHAENG YOO, FEDERICO ZAHARIEV

  ADDITIONAL CODE HAS BEEN PROVIDED BY COLLABORATORS IN OTHER GROUPS:
     IOWA STATE UNIVERSITY:
          JOE IVANIC, LAIMUTIS BYTAUTAS, KLAUS RUEDENBERG
     UNIVERSITY OF TOKYO: KIMIHIKO HIRAO, TAKAHITO NAKAJIMA,
          TAKAO TSUNEDA, MUNEAKI KAMIYA, SUSUMU YANAGISAWA,
          KIYOSHI YAGI, MAHITO CHIBA, SEIKEN TOKURA, NAOAKI KAWAKAMI
     UNIVERSITY OF AARHUS: FRANK JENSEN
     UNIVERSITY OF IOWA: VISVALDAS KAIRYS, HUI LI
     NATIONAL INST. OF STANDARDS AND TECHNOLOGY: WALT STEVENS, DAVID GARMER
     UNIVERSITY OF PISA: BENEDETTA MENNUCCI, JACOPO TOMASI
     UNIVERSITY OF MEMPHIS: HENRY KURTZ, PRAKASHAN KORAMBATH
     UNIVERSITY OF ALBERTA: TOBY ZENG, MARIUSZ KLOBUKOWSKI
     UNIVERSITY OF NEW ENGLAND: MARK SPACKMAN
     MIE UNIVERSITY: HIROAKI UMEDA
     MICHIGAN STATE UNIVERSITY:
          KAROL KOWALSKI, MARTA WLOCH, JEFFREY GOUR, JESSE LUTZ, PIOTR PIECUCH
     UNIVERSITY OF SILESIA: MONIKA MUSIAL, STANISLAW KUCHARSKI
     FACULTES UNIVERSITAIRES NOTRE-DAME DE LA PAIX:
          OLIVIER QUINET, BENOIT CHAMPAGNE
     UNIVERSITY OF CALIFORNIA - SANTA BARBARA: BERNARD KIRTMAN
     INSTITUTE FOR MOLECULAR SCIENCE:
          KAZUYA ISHIMURA, MICHIO KATOUDA, AND SHIGERU NAGASE
     UNIVERSITY OF NOTRE DAME: DAN CHIPMAN
     KYUSHU UNIVERSITY:
          HARUYUKI NAKANO,
          FENG LONG GU, JACEK KORCHOWIEC, MARCIN MAKOWSKI, AND YURIKO AOKI,
          HIROTOSHI MORI AND EISAKU MIYOSHI
     PENNSYLVANIA STATE UNIVERSITY:
          TZVETELIN IORDANOV, CHET SWALINA, JONATHAN SKONE,
          SHARON HAMMES-SCHIFFER
     WASEDA UNIVERSITY:
          MASATO KOBAYASHI, TOMOKO AKAMA, TSUGUKI TOUMA,
          TAKESHI YOSHIKAWA, YASUHIRO IKABATA, HIROMI NAKAI
     UNIVERSITY OF NEBRASKA:
          PEIFENG SU, DEJUN SI, NANDUN THELLAMUREGE, YALI WANG, HUI LI
     UNIVERSITY OF ZURICH:
          ROBERTO PEVERATI, KIM BALDRIDGE
     N. COPERNICUS UNIVERSITY AND JACKSON STATE UNIVERSITY:
          MARIA BARYSZ

 EXECUTION OF GAMESS BEGUN Thu Feb 26 00:16:31 2015

            ECHO OF THE FIRST FEW INPUT CARDS -
 INPUT CARD> $BASIS GBASIS=PC1 $END                                                         
 INPUT CARD> $CONTRL COORD=ZMT ISPHER=1 RUNTYP=ENERGY DFTTYP=PBE $END                       
 INPUT CARD>                                                                                
 INPUT CARD> $DATA                                                                          
 INPUT CARD>Title                                                                           
 INPUT CARD>Cnv 2                                                                           
 INPUT CARD>                                                                                
 INPUT CARD>S                                                                               
 INPUT CARD>O 1 1.50                                                                        
 INPUT CARD>O 1 1.50 2 100.0                                                                
 INPUT CARD> $END                                                                           
    1000000 WORDS OF MEMORY AVAILABLE

     BASIS OPTIONS
     -------------
     GBASIS=PC1          IGAUSS=       0      POLAR=NONE    
     NDFUNC=       0     NFFUNC=       0     DIFFSP=       F
     NPFUNC=       0      DIFFS=       F     BASNAM=        


     RUN TITLE
     ---------
 Title                                                                           

 THE POINT GROUP OF THE MOLECULE IS CNV     
 THE ORDER OF THE PRINCIPAL AXIS IS     2

 YOUR FULLY SUBSTITUTED Z-MATRIX IS
 S   
 O      1   1.5000000
 O      1   1.5000000  2  100.0000

 THE MOMENTS OF INERTIA ARE (AMU-ANGSTROM**2)
 IXX=    14.865   IYY=    42.238   IZZ=    57.103

 ATOM      ATOMIC                      COORDINATES (BOHR)
           CHARGE         X                   Y                   Z
 S          16.0     0.0000000000        0.0000000000       -0.9112721540
 O           8.0    -2.1714211379        0.0000000000        0.9107665219
 O           8.0     2.1714211379        0.0000000000        0.9107665219

          INTERNUCLEAR DISTANCES (ANGS.)
          ------------------------------

                1 S          2 O          3 O     

   1 S       0.0000000    1.5000000 *  1.5000000 *
   2 O       1.5000000 *  0.0000000    2.2981333 *
   3 O       1.5000000 *  2.2981333 *  0.0000000  

  * ... LESS THAN  3.000


     ATOMIC BASIS SET
     ----------------
 THE CONTRACTED PRIMITIVE FUNCTIONS HAVE BEEN UNNORMALIZED
 THE CONTRACTED BASIS FUNCTIONS ARE NOW NORMALIZED TO UNITY

  SHELL TYPE  PRIMITIVE        EXPONENT          CONTRACTION COEFFICIENT(S)

 S         

      1   S       1         55510.0000000    0.000587229760
      1   S       2          8326.7000000    0.004532413947
      1   S       3          1895.6000000    0.023265261648
      1   S       4           536.7700000    0.089696133027
      1   S       5           174.6700000    0.254098332277
      1   S       6            62.5780000    0.438665087637
      1   S       7            23.5730000    0.314547135094
      1   S       8             5.8908000    0.032727897102

      2   S       9          8326.7000000   -0.000019755715
      2   S      10          1895.6000000   -0.000043822381
      2   S      11           536.7700000   -0.001730264906
      2   S      12           174.6700000   -0.009381263460
      2   S      13            62.5780000   -0.064050766303
      2   S      14            23.5730000   -0.082478179196
      2   S      15             5.8908000    0.478342956889
      2   S      16             2.1852000    0.626896670208

      3   S      17          1895.6000000    0.000016227260
      3   S      18           536.7700000    0.000191135619
      3   S      19           174.6700000    0.001952069674
      3   S      20            62.5780000    0.010578701087
      3   S      21            23.5730000    0.022164934551
      3   S      22             5.8908000   -0.184968323118
      3   S      23             2.1852000   -0.480920750976
      3   S      24             0.4528200    1.243822243872

      4   S      25             0.1620200    1.000000000000

      5   P      26           395.4500000    0.004642761329
      5   P      27            92.8340000    0.036023396489
      5   P      28            29.2660000    0.149058869978
      5   P      29            10.5950000    0.360033266263
      5   P      30             4.0272000    0.455756476221
      5   P      31             1.5484000    0.206167664178

      6   P      32            92.8340000    0.000169901442
      6   P      33            29.2660000   -0.002541839934
      6   P      34            10.5950000   -0.007867614595
      6   P      35             4.0272000   -0.037231009184
      6   P      36             1.5484000    0.161417246830
      6   P      37             0.4613400    0.902230419976

      7   P      38             0.1313100    1.000000000000

      8   D      39             0.5500000    1.000000000000

 O         

     15   S      40          2306.7000000    0.005424388755
     15   S      41           347.1500000    0.040474749465
     15   S      42            78.8900000    0.180219634554
     15   S      43            21.8760000    0.462370311787
     15   S      44             6.6646000    0.454888396263

     16   S      45           347.1500000   -0.000655003786
     16   S      46            78.8900000   -0.005362052952
     16   S      47            21.8760000   -0.074902158894
     16   S      48             6.6646000   -0.181442579655
     16   S      49             1.0669000    1.102006874042

     17   S      50             0.3070000    1.000000000000

     18   P      51            17.0220000    0.068979967443
     18   P      52             3.6838000    0.351985516325
     18   P      53             0.9923400    0.724036547822

     19   P      54             0.2448700    1.000000000000

     20   D      55             1.0000000    1.000000000000

 TOTAL NUMBER OF BASIS SET SHELLS             =   20
 NUMBER OF CARTESIAN GAUSSIAN BASIS FUNCTIONS =   49
 NOTE: THIS RUN WILL RESTRICT THE MO VARIATION SPACE TO SPHERICAL HARMONICS.
 THE NUMBER OF ORBITALS KEPT IN THE VARIATIONAL SPACE WILL BE PRINTED LATER.
 NUMBER OF ELECTRONS                          =   32
 CHARGE OF MOLECULE                           =    0
 SPIN MULTIPLICITY                            =    1
 NUMBER OF OCCUPIED ORBITALS (ALPHA)          =   16
 NUMBER OF OCCUPIED ORBITALS (BETA )          =   16
 TOTAL NUMBER OF ATOMS                        =    3
 THE NUCLEAR REPULSION ENERGY IS      105.0498097584

     LEBEDEV GRID-BASED DFT OPTIONS
     ------------------------------
     DFTTYP=PBE     
     NRAD  =      96     NLEB  =     302
     NRAD0 =      24     NLEB0 =     110
     SWOFF =    5.00E-03 (PURE SCF -> DFT)
     SWITCH=    3.00E-04 (COARSE -> TIGHT GRID)
     THRESH=    0.00E+00 GTHRE=    1.00E+00

 GRIMME'S EMPIRICAL DISPERSION CORRECTION= F

     $CONTRL OPTIONS
     ---------------
 SCFTYP=RHF          RUNTYP=ENERGY       EXETYP=RUN     
 MPLEVL=       0     CITYP =NONE         CCTYP =NONE         VBTYP =NONE    
 DFTTYP=PBE          TDDFT =NONE    
 MULT  =       1     ICHARG=       0     NZVAR =       0     COORD =ZMT     
 PP    =NONE         RELWFN=NONE         LOCAL =NONE         NUMGRD=       F
 ISPHER=       1     NOSYM =       0     MAXIT =      30     UNITS =ANGS    
 PLTORB=       F     MOLPLT=       F     AIMPAC=       F     FRIEND=        
 NPRINT=       7     IREST =       0     GEOM  =INPUT   
 NORMF =       0     NORMP =       0     ITOL  =      20     ICUT  =       9
 INTTYP=BEST         GRDTYP=BEST         QMTTOL= 1.0E-06

     $SYSTEM OPTIONS
     ---------------
  REPLICATED MEMORY=     1000000 WORDS (ON EVERY NODE).
 DISTRIBUTED MEMDDI=           0 MILLION WORDS IN AGGREGATE,
 MEMDDI DISTRIBUTED OVER   1 PROCESSORS IS           0 WORDS/PROCESSOR.
 TOTAL MEMORY REQUESTED ON EACH PROCESSOR=     1000000 WORDS.
 TIMLIM=      525600.00 MINUTES, OR     365.0 DAYS.
 PARALL= F  BALTYP=  DLB     KDIAG=    0  COREFL= F
 MXSEQ2=     300 MXSEQ3=     150

          ----------------
          PROPERTIES INPUT
          ----------------

     MOMENTS            FIELD           POTENTIAL          DENSITY
 IEMOM =       1   IEFLD =       0   IEPOT =       0   IEDEN =       0
 WHERE =COMASS     WHERE =NUCLEI     WHERE =NUCLEI     WHERE =NUCLEI  
 OUTPUT=BOTH       OUTPUT=BOTH       OUTPUT=BOTH       OUTPUT=BOTH    
 IEMINT=       0   IEFINT=       0                     IEDINT=       0
                                                       MORB  =       0
          EXTRAPOLATION IN EFFECT
          DIIS IN EFFECT
 ORBITAL PRINTING OPTION: NPREO=     1    49     2     1

     -------------------------------
     INTEGRAL TRANSFORMATION OPTIONS
     -------------------------------
     NWORD  =            0
     CUTOFF = 1.0E-09     MPTRAN =       0
     DIRTRF =       F     AOINTS =DUP     

          ----------------------
          INTEGRAL INPUT OPTIONS
          ----------------------
 NOPK  =       1 NORDER=       0 SCHWRZ=       F

   --- ENCODED Z MATRIX ---
 COORD  TYPE   I   J   K   L   M   N
    1      1    3   1
    2      1    2   1
    3      2    2   1   3

 THE DETERMINANT OF THE G MATRIX IS 10**(    -4)

 THE DETERMINANT OF THE G MATRIX IS 10**(    -4)
 * * * WARNING * * *
 YOUR B MATRIX HAS A SMALL DETERMINANT.
 THIS SUGGESTS YOU MAY HAVE BADLY CHOSEN COORDINATES.

     ------------------------------------------
     THE POINT GROUP IS CNV, NAXIS= 2, ORDER= 4
     ------------------------------------------

 -- VARIATIONAL SPACE WILL BE RESTRICTED TO PURE SPHERICAL HARMONICS ONLY --
 AFTER EXCLUDING CONTAMINANT COMBINATIONS FROM THE CARTESIAN GAUSSIAN BASIS
 SET, THE NUMBER OF SPHERICAL HARMONICS KEPT IN THE VARIATION SPACE IS   46

     DIMENSIONS OF THE SYMMETRY SUBSPACES ARE
 A1  =   19     A2  =    5     B1  =   14     B2  =    8

 ..... DONE SETTING UP THE RUN .....
 STEP CPU TIME =     0.01 TOTAL CPU TIME =        0.0 (    0.0 MIN)
 TOTAL WALL CLOCK TIME=        0.0 SECONDS, CPU UTILIZATION IS  50.00%

          ********************
          1 ELECTRON INTEGRALS
          ********************
 ...... END OF ONE-ELECTRON INTEGRALS ......
 STEP CPU TIME =     0.00 TOTAL CPU TIME =        0.0 (    0.0 MIN)
 TOTAL WALL CLOCK TIME=        0.0 SECONDS, CPU UTILIZATION IS  33.33%

          -------------
          GUESS OPTIONS
          -------------
          GUESS =HUCKEL            NORB  =       0          NORDER=       0
          MIX   =       F          PRTMO =       F          PUNMO =       F
          TOLZ  = 1.0E-08          TOLE  = 1.0E-05
          SYMDEN=       F          PURIFY=       F

 INITIAL GUESS ORBITALS GENERATED BY HUCKEL   ROUTINE.
 HUCKEL GUESS REQUIRES     21583 WORDS.

 STATISTICS FOR GENERATION OF SYMMETRY ORBITAL -Q- MATRIX
 NUMBER OF CARTESIAN ATOMIC ORBITALS=         49
 NUMBER OF SPHERICAL CONTAMINANTS DROPPED=     3
 NUMBER OF LINEARLY DEPENDENT MOS DROPPED=     0
 TOTAL NUMBER OF MOS IN VARIATION SPACE=      46

 SYMMETRIES FOR INITIAL GUESS ORBITALS FOLLOW.   BOTH SET(S).
    16 ORBITALS ARE OCCUPIED (    7 CORE ORBITALS).
     8=?A1      9=?B1     10=A1      11=B2      12=A1      13=B1      14=A2  
    15=B1      16=A1      17=B2      18=B1      19=A1      20=A1      21=A1  
    22=A1      23=A1      24=A1      25=A1      26=A1  
 ...... END OF INITIAL ORBITAL SELECTION ......
 STEP CPU TIME =     0.01 TOTAL CPU TIME =        0.0 (    0.0 MIN)
 TOTAL WALL CLOCK TIME=        0.0 SECONDS, CPU UTILIZATION IS  66.67%

                    ----------------------
                    AO INTEGRAL TECHNOLOGY
                    ----------------------
     S,P,L SHELL ROTATED AXIS INTEGRALS, REPROGRAMMED BY
        KAZUYA ISHIMURA (IMS) AND JOSE SIERRA (SYNSTAR).
     S,P,D,L SHELL ROTATED AXIS INTEGRALS PROGRAMMED BY
        KAZUYA ISHIMURA (INSTITUTE FOR MOLECULAR SCIENCE).
     S,P,D,F,G SHELL TO TOTAL QUARTET ANGULAR MOMENTUM SUM 5,
        ERIC PROGRAM BY GRAHAM FLETCHER (ELORET AND NASA ADVANCED
        SUPERCOMPUTING DIVISION, AMES RESEARCH CENTER).
     S,P,D,F,G,L SHELL GENERAL RYS QUADRATURE PROGRAMMED BY
        MICHEL DUPUIS (PACIFIC NORTHWEST NATIONAL LABORATORY).

          --------------------
          2 ELECTRON INTEGRALS
          --------------------

 THE -PK- OPTION IS OFF, THE INTEGRALS ARE NOT IN SUPERMATRIX FORM.
 STORING   15000 INTEGRALS/RECORD ON DISK, USING 12 BYTES/INTEGRAL.
 TWO ELECTRON INTEGRAL EVALUATION REQUIRES   90606 WORDS OF MEMORY.
 II,JST,KST,LST =  1  1  1  1 NREC =         1 INTLOC =    1
 II,JST,KST,LST =  2  1  1  1 NREC =         1 INTLOC =    2
 II,JST,KST,LST =  3  1  1  1 NREC =         1 INTLOC =    7
 II,JST,KST,LST =  4  1  1  1 NREC =         1 INTLOC =   22
 II,JST,KST,LST =  5  1  1  1 NREC =         1 INTLOC =   56
 II,JST,KST,LST =  6  1  1  1 NREC =         1 INTLOC =  125
 II,JST,KST,LST =  7  1  1  1 NREC =         1 INTLOC =  329
 II,JST,KST,LST =  8  1  1  1 NREC =         1 INTLOC =  776
 II,JST,KST,LST =  9  1  1  1 NREC =         1 INTLOC = 2864
 II,JST,KST,LST = 10  1  1  1 NREC =         1 INTLOC = 2864
 II,JST,KST,LST = 11  1  1  1 NREC =         1 INTLOC = 2864
 II,JST,KST,LST = 12  1  1  1 NREC =         1 INTLOC = 2864
 II,JST,KST,LST = 13  1  1  1 NREC =         1 INTLOC = 2864
 II,JST,KST,LST = 14  1  1  1 NREC =         1 INTLOC = 2864
 II,JST,KST,LST = 15  1  1  1 NREC =         1 INTLOC = 2864
 II,JST,KST,LST = 16  1  1  1 NREC =         1 INTLOC = 5110
 II,JST,KST,LST = 17  1  1  1 NREC =         1 INTLOC = 8367
 II,JST,KST,LST = 18  1  1  1 NREC =         1 INTLOC =12825
 II,JST,KST,LST = 19  1  1  1 NREC =         3 INTLOC =  901
 II,JST,KST,LST = 20  1  1  1 NREC =         5 INTLOC = 2216
 TOTAL NUMBER OF NONZERO TWO-ELECTRON INTEGRALS =              179907
         12 INTEGRAL RECORDS WERE STORED ON DISK FILE  8.
  ...... END OF TWO-ELECTRON INTEGRALS .....
 STEP CPU TIME =     0.16 TOTAL CPU TIME =        0.2 (    0.0 MIN)
 TOTAL WALL CLOCK TIME=        0.2 SECONDS, CPU UTILIZATION IS  94.74%

          --------------------------
               R-PBE SCF CALCULATION
          --------------------------

     NUCLEAR ENERGY =       105.0498097584
     MAXIT =   30     NPUNCH=    2
     EXTRAP=T  DAMP=F  SHIFT=F  RSTRCT=F  DIIS=T  DEM=F  SOSCF=F
         DENSITY MATRIX CONVERGENCE THRESHOLD=  1.00E-05
     COARSE -> FINE DFT GRID SWITCH THRESHOLD=  3.00E-04 (SWITCH IN $DFT)
                   HF -> DFT SWITCH THRESHOLD=  5.00E-03 (SWOFF IN $DFT)
     MEMORY REQUIRED FOR RHF ITERS=    183108 WORDS.

 DFT CODE IS SWITCHING FROM THE FINE GRID NRAD= 96,  NLEB=  302
                      TO THE COARSE GRID NRAD0= 24, NLEB0=  110

     EXCHANGE FUNCTIONAL   =PBE       
     CORRELATION FUNCTIONAL=PBE       
     DFT THRESHOLD         =.460E-07
     GRID CHANGE THRESHOLD =.300E-03
 FOR AN EULER-MACLAURIN QUADRATURE USING  96 RADIAL POINTS:
 SMALLEST GAUSSIAN PRIMITIVE EXPONENT=        0.1313100000 OF TYPE -P-
 ON ATOM NUMBER   1 HAS RADIAL NORMALIZATION=  1.000000
  LARGEST GAUSSIAN PRIMITIVE EXPONENT=    55510.0000000000 OF TYPE -S-
 ON ATOM NUMBER   1 HAS RADIAL NORMALIZATION=  0.999999
 DFT IS SWITCHED OFF, PERFORMING PURE SCF UNTIL SWOFF THRESHOLD IS REACHED.

 ITER EX DEM     TOTAL ENERGY        E CHANGE  DENSITY CHANGE    DIIS ERROR
   1  0  0     -546.0864928904  -546.0864928904   0.384804117   1.386408103
          * * *   INITIATING DIIS PROCEDURE   * * *
   2  1  0     -546.8374765122    -0.7509836218   0.367334321   0.264246854
   3  2  0     -546.9232410800    -0.0857645678   0.143258166   0.275181476
   4  3  0     -547.0873911564    -0.1641500763   0.011401773   0.012550651
   5  4  0     -547.0878608665    -0.0004697101   0.005488593   0.003031245
   6  5  0     -547.0879011106    -0.0000402441   0.000756408   0.000460191
 CONVERGED TO SWOFF, SO DFT CALCULATION IS NOW SWITCHED ON.
          * * *   INITIATING DIIS PROCEDURE   * * *
   7  6  0     -548.2385720391    -1.1506709285   0.256357018   0.102513845
   8  7  0     -548.2400995683    -0.0015275293   0.220435597   0.111457597
   9  8  0     -548.2411905579    -0.0010909896   0.078396174   0.128761064
  10  9  0     -548.2750651495    -0.0338745916   0.015546289   0.013290197
  11 10  0     -548.2755332896    -0.0004681401   0.000816720   0.000988034
  12 11  0     -548.2755357675    -0.0000024779   0.000491006   0.000415324
  13 12  0     -548.2755361781    -0.0000004106   0.000048017   0.000050990
 DFT CODE IS SWITCHING BACK TO THE FINE GRID
          * * *   INITIATING DIIS PROCEDURE   * * *
  14 13  0     -548.2450175539     0.0305186242   0.007567281   0.012197207
  15 14  0     -548.2453048616    -0.0002873077   0.003025977   0.002396049
  16 15  0     -548.2452964102     0.0000084514   0.003172784   0.003665717
  17 16  0     -548.2453152574    -0.0000188472   0.001401876   0.001360612
  18 17  0     -548.2453205853    -0.0000053279   0.000166058   0.000119816
  19 18  0     -548.2453206255    -0.0000000402   0.000027754   0.000011471
  20 19  0     -548.2453206259    -0.0000000004   0.000003732   0.000002977
  21 20  0     -548.2453206259     0.0000000000   0.000000173   0.000000162

          -----------------
          DENSITY CONVERGED
          -----------------
     TIME TO FORM FOCK OPERATORS=       4.4 SECONDS (       0.2 SEC/ITER)
     TIME TO SOLVE SCF EQUATIONS=       0.0 SECONDS (       0.0 SEC/ITER)

 FINAL R-PBE ENERGY IS     -548.2453206259 AFTER  21 ITERATIONS
 DFT EXCHANGE + CORRELATION ENERGY =       -42.4942233881
 TOTAL ELECTRON NUMBER             =        31.9999949522

          ------------
          EIGENVECTORS
          ------------

                      1          2          3          4          5
                  -88.2139   -18.7883   -18.7883    -7.8398    -5.8602
                     A1         A1         B1         A1         B1  
    1  S  1  S    1.002982  -0.000078   0.000000  -0.274042   0.000000
    2  S  1  S   -0.010267  -0.000740   0.000000   1.039574   0.000000
    3  S  1  S    0.001850  -0.001600   0.000000   0.041407   0.000000
    4  S  1  S   -0.000798   0.011440   0.000000  -0.011854   0.000000
    5  S  1  X    0.000000   0.000000  -0.000011   0.000000   0.996611
    6  S  1  Y    0.000000   0.000000   0.000000   0.000000   0.000000
    7  S  1  Z    0.000044  -0.000078   0.000000   0.009239   0.000000
    8  S  1  X    0.000000   0.000000  -0.001376   0.000000   0.009568
    9  S  1  Y    0.000000   0.000000   0.000000   0.000000   0.000000
   10  S  1  Z    0.000134   0.001524   0.000000   0.001601   0.000000
   11  S  1  X    0.000000   0.000000  -0.003879   0.000000  -0.000265
   12  S  1  Y    0.000000   0.000000   0.000000   0.000000   0.000000
   13  S  1  Z   -0.000043   0.005231   0.000000  -0.000758   0.000000
   14  S  1 XX    0.000056   0.000580   0.000000   0.000613   0.000000
   15  S  1 YY   -0.000061  -0.001008   0.000000  -0.000517   0.000000
   16  S  1 ZZ    0.000004   0.000428   0.000000  -0.000096   0.000000
   17  S  1 XY    0.000000   0.000000   0.000000   0.000000   0.000000
   18  S  1 XZ    0.000000   0.000000  -0.000508   0.000000   0.000823
   19  S  1 YZ    0.000000   0.000000   0.000000   0.000000   0.000000
   20  O  2  S    0.000010   0.703301   0.703243  -0.000046   0.000302
   21  O  2  S    0.000020   0.026052   0.025669  -0.000202  -0.000186
   22  O  2  S   -0.000038  -0.014137  -0.011577   0.000373  -0.000103
   23  O  2  X   -0.000034   0.000646   0.000880  -0.000320  -0.000366
   24  O  2  Y    0.000000   0.000000   0.000000   0.000000   0.000000
   25  O  2  Z    0.000025  -0.000630  -0.000752   0.000233   0.000364
   26  O  2  X   -0.000097  -0.003152  -0.002217  -0.000746  -0.000056
   27  O  2  Y    0.000000   0.000000   0.000000   0.000000   0.000000
   28  O  2  Z    0.000106   0.002146   0.002081   0.000902   0.000042
   29  O  2 XX   -0.000049  -0.000164  -0.000225  -0.000205  -0.000119
   30  O  2 YY    0.000070   0.000162   0.000295   0.000319   0.000273
   31  O  2 ZZ   -0.000021   0.000002  -0.000070  -0.000114  -0.000154
   32  O  2 XY    0.000000   0.000000   0.000000   0.000000   0.000000
   33  O  2 XZ    0.000119   0.000445   0.000274   0.000531   0.000459
   34  O  2 YZ    0.000000   0.000000   0.000000   0.000000   0.000000
   35  O  3  S    0.000010   0.703301  -0.703243  -0.000046  -0.000302
   36  O  3  S    0.000020   0.026052  -0.025669  -0.000202   0.000186
   37  O  3  S   -0.000038  -0.014137   0.011577   0.000373   0.000103
   38  O  3  X    0.000034  -0.000646   0.000880   0.000320  -0.000366
   39  O  3  Y    0.000000   0.000000   0.000000   0.000000   0.000000
   40  O  3  Z    0.000025  -0.000630   0.000752   0.000233  -0.000364
   41  O  3  X    0.000097   0.003152  -0.002217   0.000746  -0.000056
   42  O  3  Y    0.000000   0.000000   0.000000   0.000000   0.000000
   43  O  3  Z    0.000106   0.002146  -0.002081   0.000902  -0.000042
   44  O  3 XX   -0.000049  -0.000164   0.000225  -0.000205   0.000119
   45  O  3 YY    0.000070   0.000162  -0.000295   0.000319  -0.000273
   46  O  3 ZZ   -0.000021   0.000002   0.000070  -0.000114   0.000154
   47  O  3 XY    0.000000   0.000000   0.000000   0.000000   0.000000
   48  O  3 XZ   -0.000119  -0.000445   0.000274  -0.000531   0.000459
   49  O  3 YZ    0.000000   0.000000   0.000000   0.000000   0.000000

                      6          7          8          9         10
                   -5.8598    -5.8548    -1.0399    -0.9281    -0.5980
                     B2         A1         A1         B1         A1  
    1  S  1  S    0.000000   0.002596   0.050183   0.000000   0.068109
    2  S  1  S    0.000000  -0.010045  -0.142504   0.000000  -0.190100
    3  S  1  S    0.000000  -0.000259   0.296891   0.000000   0.434212
    4  S  1  S    0.000000  -0.000417   0.132394   0.000000   0.417459
    5  S  1  X    0.000000   0.000000   0.000000   0.118540   0.000000
    6  S  1  Y    0.996783   0.000000   0.000000   0.000000   0.000000
    7  S  1  Z    0.000000   0.996732  -0.073541   0.000000   0.070161
    8  S  1  X    0.000000   0.000000   0.000000  -0.234679   0.000000
    9  S  1  Y    0.009267   0.000000   0.000000   0.000000   0.000000
   10  S  1  Z    0.000000   0.009042   0.139313   0.000000  -0.146012
   11  S  1  X    0.000000   0.000000   0.000000  -0.031116   0.000000
   12  S  1  Y   -0.000279   0.000000   0.000000   0.000000   0.000000
   13  S  1  Z    0.000000  -0.000352  -0.001685   0.000000  -0.091883
   14  S  1 XX    0.000000  -0.000354   0.024172   0.000000  -0.005093
   15  S  1 YY    0.000000  -0.000294  -0.032841   0.000000   0.021499
   16  S  1 ZZ    0.000000   0.000648   0.008669   0.000000  -0.016406
   17  S  1 XY    0.000000   0.000000   0.000000   0.000000   0.000000
   18  S  1 XZ    0.000000   0.000000   0.000000  -0.083586   0.000000
   19  S  1 YZ    0.000504   0.000000   0.000000   0.000000   0.000000
   20  O  2  S    0.000000  -0.000268  -0.120690  -0.147490   0.096162
   21  O  2  S    0.000000   0.000093   0.238150   0.298202  -0.197020
   22  O  2  S    0.000000   0.000493   0.270501   0.346305  -0.314329
   23  O  2  X    0.000000   0.000430   0.096536   0.070264   0.074113
   24  O  2  Y    0.000059   0.000000   0.000000   0.000000   0.000000
   25  O  2  Z    0.000000  -0.000305  -0.072807  -0.079103  -0.106822
   26  O  2  X    0.000000   0.000157   0.036354   0.024441   0.031727
   27  O  2  Y   -0.000065   0.000000   0.000000   0.000000   0.000000
   28  O  2  Z    0.000000  -0.000272  -0.028387  -0.028262  -0.046726
   29  O  2 XX    0.000000   0.000223   0.005340   0.000061   0.000582
   30  O  2 YY    0.000000  -0.000266  -0.006040  -0.002165  -0.005001
   31  O  2 ZZ    0.000000   0.000043   0.000700   0.002103   0.004419
   32  O  2 XY    0.000063   0.000000   0.000000   0.000000   0.000000
   33  O  2 XZ    0.000000  -0.000480  -0.013430  -0.008440  -0.007799
   34  O  2 YZ   -0.000069   0.000000   0.000000   0.000000   0.000000
   35  O  3  S    0.000000  -0.000268  -0.120690   0.147490   0.096162
   36  O  3  S    0.000000   0.000093   0.238150  -0.298202  -0.197020
   37  O  3  S    0.000000   0.000493   0.270501  -0.346305  -0.314329
   38  O  3  X    0.000000  -0.000430  -0.096536   0.070264  -0.074113
   39  O  3  Y    0.000059   0.000000   0.000000   0.000000   0.000000
   40  O  3  Z    0.000000  -0.000305  -0.072807   0.079103  -0.106822
   41  O  3  X    0.000000  -0.000157  -0.036354   0.024441  -0.031727
   42  O  3  Y   -0.000065   0.000000   0.000000   0.000000   0.000000
   43  O  3  Z    0.000000  -0.000272  -0.028387   0.028262  -0.046726
   44  O  3 XX    0.000000   0.000223   0.005340  -0.000061   0.000582
   45  O  3 YY    0.000000  -0.000266  -0.006040   0.002165  -0.005001
   46  O  3 ZZ    0.000000   0.000043   0.000700  -0.002103   0.004419
   47  O  3 XY   -0.000063   0.000000   0.000000   0.000000   0.000000
   48  O  3 XZ    0.000000   0.000480   0.013430  -0.008440   0.007799
   49  O  3 YZ   -0.000069   0.000000   0.000000   0.000000   0.000000

                     11         12         13         14         15
                   -0.4375    -0.4287    -0.4265    -0.3086    -0.2994
                     B2         A1         B1         A2         A1  
    1  S  1  S    0.000000  -0.004032   0.000000   0.000000   0.014443
    2  S  1  S    0.000000   0.042072   0.000000   0.000000  -0.073054
    3  S  1  S    0.000000   0.015786   0.000000   0.000000   0.052388
    4  S  1  S    0.000000  -0.255073   0.000000   0.000000   0.394608
    5  S  1  X    0.000000   0.000000  -0.175542   0.000000   0.000000
    6  S  1  Y   -0.208235   0.000000   0.000000   0.000000   0.000000
    7  S  1  Z    0.000000  -0.189587   0.000000   0.000000   0.097404
    8  S  1  X    0.000000   0.000000   0.418492   0.000000   0.000000
    9  S  1  Y    0.487366   0.000000   0.000000   0.000000   0.000000
   10  S  1  Z    0.000000   0.444302   0.000000   0.000000  -0.231628
   11  S  1  X    0.000000   0.000000   0.108182   0.000000   0.000000
   12  S  1  Y    0.262130   0.000000   0.000000   0.000000   0.000000
   13  S  1  Z    0.000000   0.155570   0.000000   0.000000  -0.086218
   14  S  1 XX    0.000000  -0.045047   0.000000   0.000000  -0.131270
   15  S  1 YY    0.000000  -0.017070   0.000000   0.000000   0.042871
   16  S  1 ZZ    0.000000   0.062117   0.000000   0.000000   0.088399
   17  S  1 XY    0.000000   0.000000   0.000000  -0.117094   0.000000
   18  S  1 XZ    0.000000   0.000000   0.044743   0.000000   0.000000
   19  S  1 YZ    0.057090   0.000000   0.000000   0.000000   0.000000
   20  O  2  S    0.000000   0.045541  -0.066568   0.000000  -0.002541
   21  O  2  S    0.000000  -0.090870   0.131728   0.000000   0.003085
   22  O  2  S    0.000000  -0.164007   0.262644   0.000000  -0.014973
   23  O  2  X    0.000000   0.329367  -0.198404   0.000000   0.068535
   24  O  2  Y    0.295780   0.000000   0.000000   0.469425   0.000000
   25  O  2  Z    0.000000   0.017880   0.301830   0.000000   0.426702
   26  O  2  X    0.000000   0.201588  -0.111902   0.000000   0.053730
   27  O  2  Y    0.172730   0.000000   0.000000   0.335443   0.000000
   28  O  2  Z    0.000000   0.009452   0.169266   0.000000   0.316238
   29  O  2 XX    0.000000   0.017476   0.001722   0.000000   0.009104
   30  O  2 YY    0.000000  -0.005922   0.008064   0.000000   0.004476
   31  O  2 ZZ    0.000000  -0.011554  -0.009786   0.000000  -0.013579
   32  O  2 XY    0.017278   0.000000   0.000000   0.014800   0.000000
   33  O  2 XZ    0.000000  -0.006313   0.011335   0.000000   0.010806
   34  O  2 YZ   -0.014017   0.000000   0.000000  -0.015613   0.000000
   35  O  3  S    0.000000   0.045541   0.066568   0.000000  -0.002541
   36  O  3  S    0.000000  -0.090870  -0.131728   0.000000   0.003085
   37  O  3  S    0.000000  -0.164007  -0.262644   0.000000  -0.014973
   38  O  3  X    0.000000  -0.329367  -0.198404   0.000000  -0.068535
   39  O  3  Y    0.295780   0.000000   0.000000  -0.469425   0.000000
   40  O  3  Z    0.000000   0.017880  -0.301830   0.000000   0.426702
   41  O  3  X    0.000000  -0.201588  -0.111902   0.000000  -0.053730
   42  O  3  Y    0.172730   0.000000   0.000000  -0.335443   0.000000
   43  O  3  Z    0.000000   0.009452  -0.169266   0.000000   0.316238
   44  O  3 XX    0.000000   0.017476  -0.001722   0.000000   0.009104
   45  O  3 YY    0.000000  -0.005922  -0.008064   0.000000   0.004476
   46  O  3 ZZ    0.000000  -0.011554   0.009786   0.000000  -0.013579
   47  O  3 XY   -0.017278   0.000000   0.000000   0.014800   0.000000
   48  O  3 XZ    0.000000   0.006313   0.011335   0.000000  -0.010806
   49  O  3 YZ   -0.014017   0.000000   0.000000   0.015613   0.000000

                     16         17         18         19         20
                   -0.2674    -0.1791    -0.0277     0.0397     0.3420
                     B1         B2         B1         A1         B2  
    1  S  1  S    0.000000   0.000000   0.000000   0.027912   0.000000
    2  S  1  S    0.000000   0.000000   0.000000  -0.139916   0.000000
    3  S  1  S    0.000000   0.000000   0.000000   0.117790   0.000000
    4  S  1  S    0.000000   0.000000   0.000000   1.036738   0.000000
    5  S  1  X   -0.011879   0.000000  -0.175956   0.000000   0.000000
    6  S  1  Y    0.000000  -0.205470   0.000000   0.000000   0.284422
    7  S  1  Z    0.000000   0.000000   0.000000  -0.132937   0.000000
    8  S  1  X    0.020506   0.000000   0.445971   0.000000   0.000000
    9  S  1  Y    0.000000   0.519146   0.000000   0.000000  -1.097382
   10  S  1  Z    0.000000   0.000000   0.000000   0.346491   0.000000
   11  S  1  X    0.164778   0.000000   0.927407   0.000000   0.000000
   12  S  1  Y    0.000000   0.475999   0.000000   0.000000   1.233413
   13  S  1  Z    0.000000   0.000000   0.000000   1.061151   0.000000
   14  S  1 XX    0.000000   0.000000   0.000000  -0.106342   0.000000
   15  S  1 YY    0.000000   0.000000   0.000000   0.243274   0.000000
   16  S  1 ZZ    0.000000   0.000000   0.000000  -0.136932   0.000000
   17  S  1 XY    0.000000   0.000000   0.000000   0.000000   0.000000
   18  S  1 XZ   -0.103042   0.000000  -0.224957   0.000000   0.000000
   19  S  1 YZ    0.000000  -0.093334   0.000000   0.000000  -0.233389
   20  O  2  S   -0.005896   0.000000  -0.040297   0.059051   0.000000
   21  O  2  S    0.012884   0.000000   0.065649  -0.086281   0.000000
   22  O  2  S    0.059047   0.000000   0.412002  -0.641199   0.000000
   23  O  2  X    0.429758   0.000000   0.021548  -0.274711   0.000000
   24  O  2  Y    0.000000  -0.375601   0.000000   0.000000   0.001523
   25  O  2  Z    0.223744   0.000000  -0.312038   0.098608   0.000000
   26  O  2  X    0.294425   0.000000   0.026823  -0.416337   0.000000
   27  O  2  Y    0.000000  -0.330952   0.000000   0.000000  -0.118061
   28  O  2  Z    0.154819   0.000000  -0.313984   0.111672   0.000000
   29  O  2 XX    0.017983   0.000000   0.000227  -0.002110   0.000000
   30  O  2 YY   -0.000586   0.000000   0.003098   0.008830   0.000000
   31  O  2 ZZ   -0.017397   0.000000  -0.003325  -0.006721   0.000000
   32  O  2 XY    0.000000  -0.004484   0.000000   0.000000  -0.029061
   33  O  2 XZ   -0.003336   0.000000   0.001115  -0.000878   0.000000
   34  O  2 YZ    0.000000   0.001059   0.000000   0.000000   0.016335
   35  O  3  S    0.005896   0.000000   0.040297   0.059051   0.000000
   36  O  3  S   -0.012884   0.000000  -0.065649  -0.086281   0.000000
   37  O  3  S   -0.059047   0.000000  -0.412002  -0.641199   0.000000
   38  O  3  X    0.429758   0.000000   0.021548   0.274711   0.000000
   39  O  3  Y    0.000000  -0.375601   0.000000   0.000000   0.001523
   40  O  3  Z   -0.223744   0.000000   0.312038   0.098608   0.000000
   41  O  3  X    0.294425   0.000000   0.026823   0.416337   0.000000
   42  O  3  Y    0.000000  -0.330952   0.000000   0.000000  -0.118061
   43  O  3  Z   -0.154819   0.000000   0.313984   0.111672   0.000000
   44  O  3 XX   -0.017983   0.000000  -0.000227  -0.002110   0.000000
   45  O  3 YY    0.000586   0.000000  -0.003098   0.008830   0.000000
   46  O  3 ZZ    0.017397   0.000000   0.003325  -0.006721   0.000000
   47  O  3 XY    0.000000   0.004484   0.000000   0.000000   0.029061
   48  O  3 XZ   -0.003336   0.000000   0.001115   0.000878   0.000000
   49  O  3 YZ    0.000000   0.001059   0.000000   0.000000   0.016335

                     21         22         23         24         25
                    0.3606     0.3866     0.4034     0.5239     0.5307
                     A1         B1         A1         A2         B2  
    1  S  1  S    0.012019   0.000000  -0.115773   0.000000   0.000000
    2  S  1  S    0.023926   0.000000  -0.412738   0.000000   0.000000
    3  S  1  S    0.166257   0.000000  -1.775089   0.000000   0.000000
    4  S  1  S    0.027508   0.000000   2.361482   0.000000   0.000000
    5  S  1  X    0.000000   0.289515   0.000000   0.000000   0.000000
    6  S  1  Y    0.000000   0.000000   0.000000   0.000000   0.067912
    7  S  1  Z    0.292009   0.000000   0.021781   0.000000   0.000000
    8  S  1  X    0.000000  -1.071023   0.000000   0.000000   0.000000
    9  S  1  Y    0.000000   0.000000   0.000000   0.000000  -0.281983
   10  S  1  Z   -1.082080   0.000000  -0.050833   0.000000   0.000000
   11  S  1  X    0.000000   1.457059   0.000000   0.000000   0.000000
   12  S  1  Y    0.000000   0.000000   0.000000   0.000000   0.302424
   13  S  1  Z    1.266742   0.000000   0.460813   0.000000   0.000000
   14  S  1 XX    0.295860   0.000000   0.001142   0.000000   0.000000
   15  S  1 YY   -0.174923   0.000000   0.126652   0.000000   0.000000
   16  S  1 ZZ   -0.120936   0.000000  -0.127794   0.000000   0.000000
   17  S  1 XY    0.000000   0.000000   0.000000   0.923400   0.000000
   18  S  1 XZ    0.000000   0.247589   0.000000   0.000000   0.000000
   19  S  1 YZ    0.000000   0.000000   0.000000   0.000000   0.880387
   20  O  2  S    0.001674  -0.011242   0.018164   0.000000   0.000000
   21  O  2  S    0.070348  -0.042898  -0.017258   0.000000   0.000000
   22  O  2  S   -0.357176   0.488805  -0.492552   0.000000   0.000000
   23  O  2  X    0.191355  -0.219139   0.169030   0.000000   0.000000
   24  O  2  Y    0.000000   0.000000   0.000000   0.304236  -0.320863
   25  O  2  Z   -0.071430   0.113919  -0.127995   0.000000   0.000000
   26  O  2  X   -0.091642   0.035959  -0.180060   0.000000   0.000000
   27  O  2  Y    0.000000   0.000000   0.000000  -0.057146   0.078021
   28  O  2  Z   -0.032167  -0.132524   0.103660   0.000000   0.000000
   29  O  2 XX   -0.040151   0.000191  -0.032322   0.000000   0.000000
   30  O  2 YY    0.012921  -0.024595   0.037349   0.000000   0.000000
   31  O  2 ZZ    0.027229   0.024405  -0.005027   0.000000   0.000000
   32  O  2 XY    0.000000   0.000000   0.000000  -0.024464   0.042754
   33  O  2 XZ    0.015008  -0.042506   0.044878   0.000000   0.000000
   34  O  2 YZ    0.000000   0.000000   0.000000   0.048903  -0.003028
   35  O  3  S    0.001674   0.011242   0.018164   0.000000   0.000000
   36  O  3  S    0.070348   0.042898  -0.017258   0.000000   0.000000
   37  O  3  S   -0.357176  -0.488805  -0.492552   0.000000   0.000000
   38  O  3  X   -0.191355  -0.219139  -0.169030   0.000000   0.000000
   39  O  3  Y    0.000000   0.000000   0.000000  -0.304236  -0.320863
   40  O  3  Z   -0.071430  -0.113919  -0.127995   0.000000   0.000000
   41  O  3  X    0.091642   0.035959   0.180060   0.000000   0.000000
   42  O  3  Y    0.000000   0.000000   0.000000   0.057146   0.078021
   43  O  3  Z   -0.032167   0.132524   0.103660   0.000000   0.000000
   44  O  3 XX   -0.040151  -0.000191  -0.032322   0.000000   0.000000
   45  O  3 YY    0.012921   0.024595   0.037349   0.000000   0.000000
   46  O  3 ZZ    0.027229  -0.024405  -0.005027   0.000000   0.000000
   47  O  3 XY    0.000000   0.000000   0.000000  -0.024464  -0.042754
   48  O  3 XZ   -0.015008  -0.042506  -0.044878   0.000000   0.000000
   49  O  3 YZ    0.000000   0.000000   0.000000  -0.048903  -0.003028

                     26         27         28         29         30
                    0.5697     0.6439     0.6796     0.7692     0.8102
                     A1         A1         B1         A1         A2  
    1  S  1  S   -0.006267   0.004775   0.000000   0.001934   0.000000
    2  S  1  S   -0.045220  -0.067404   0.000000   0.008067   0.000000
    3  S  1  S   -0.122742  -0.019940   0.000000   0.028913   0.000000
    4  S  1  S    0.421532   1.412866   0.000000  -0.131476   0.000000
    5  S  1  X    0.000000   0.000000  -0.135171   0.000000   0.000000
    6  S  1  Y    0.000000   0.000000   0.000000   0.000000   0.000000
    7  S  1  Z    0.051734  -0.126746   0.000000  -0.028313   0.000000
    8  S  1  X    0.000000   0.000000   0.711728   0.000000   0.000000
    9  S  1  Y    0.000000   0.000000   0.000000   0.000000   0.000000
   10  S  1  Z   -0.198978   0.607443   0.000000   0.091282   0.000000
   11  S  1  X    0.000000   0.000000   0.272502   0.000000   0.000000
   12  S  1  Y    0.000000   0.000000   0.000000   0.000000   0.000000
   13  S  1  Z    0.425774   0.311915   0.000000  -0.521208   0.000000
   14  S  1 XX   -0.513094   0.587065   0.000000   0.510840   0.000000
   15  S  1 YY   -0.301806  -0.748512   0.000000  -0.019486   0.000000
   16  S  1 ZZ    0.814901   0.161448   0.000000  -0.491354   0.000000
   17  S  1 XY    0.000000   0.000000   0.000000   0.000000   0.411498
   18  S  1 XZ    0.000000   0.000000   0.651651   0.000000   0.000000
   19  S  1 YZ    0.000000   0.000000   0.000000   0.000000   0.000000
   20  O  2  S    0.013769   0.063034  -0.063295   0.003064   0.000000
   21  O  2  S   -0.045593  -0.185286   0.182565  -0.045440   0.000000
   22  O  2  S   -0.179428  -0.537456   0.412806   0.141805   0.000000
   23  O  2  X   -0.185106   0.203153  -0.188293  -0.399758   0.000000
   24  O  2  Y    0.000000   0.000000   0.000000   0.000000  -0.580959
   25  O  2  Z   -0.361708  -0.042506   0.209021  -0.337117   0.000000
   26  O  2  X   -0.068110  -0.746369   0.800634   0.538425   0.000000
   27  O  2  Y    0.000000   0.000000   0.000000   0.000000   0.814621
   28  O  2  Z    0.165434   0.552219  -0.696837   0.567783   0.000000
   29  O  2 XX    0.046261  -0.003147  -0.009521  -0.036271   0.000000
   30  O  2 YY   -0.001344  -0.017002   0.006150  -0.016875   0.000000
   31  O  2 ZZ   -0.044917   0.020150   0.003371   0.053145   0.000000
   32  O  2 XY    0.000000   0.000000   0.000000   0.000000  -0.042698
   33  O  2 XZ    0.029027  -0.001259   0.012379  -0.002354   0.000000
   34  O  2 YZ    0.000000   0.000000   0.000000   0.000000   0.034027
   35  O  3  S    0.013769   0.063034   0.063295   0.003064   0.000000
   36  O  3  S   -0.045593  -0.185286  -0.182565  -0.045440   0.000000
   37  O  3  S   -0.179428  -0.537456  -0.412806   0.141805   0.000000
   38  O  3  X    0.185106  -0.203153  -0.188293   0.399758   0.000000
   39  O  3  Y    0.000000   0.000000   0.000000   0.000000   0.580959
   40  O  3  Z   -0.361708  -0.042506  -0.209021  -0.337117   0.000000
   41  O  3  X    0.068110   0.746369   0.800634  -0.538425   0.000000
   42  O  3  Y    0.000000   0.000000   0.000000   0.000000  -0.814621
   43  O  3  Z    0.165434   0.552219   0.696837   0.567783   0.000000
   44  O  3 XX    0.046261  -0.003147   0.009521  -0.036271   0.000000
   45  O  3 YY   -0.001344  -0.017002  -0.006150  -0.016875   0.000000
   46  O  3 ZZ   -0.044917   0.020150  -0.003371   0.053145   0.000000
   47  O  3 XY    0.000000   0.000000   0.000000   0.000000  -0.042698
   48  O  3 XZ   -0.029027   0.001259   0.012379   0.002354   0.000000
   49  O  3 YZ    0.000000   0.000000   0.000000   0.000000  -0.034027

                     31         32         33         34         35
                    0.8294     0.8780     0.9105     1.0702     1.5782
                     B2         A1         B1         B1         B1  
    1  S  1  S    0.000000   0.029085   0.000000   0.000000   0.000000
    2  S  1  S    0.000000   0.243687   0.000000   0.000000   0.000000
    3  S  1  S    0.000000   0.641650   0.000000   0.000000   0.000000
    4  S  1  S    0.000000  -0.464011   0.000000   0.000000   0.000000
    5  S  1  X    0.000000   0.000000  -0.033212  -0.055284  -0.023925
    6  S  1  Y   -0.026131   0.000000   0.000000   0.000000   0.000000
    7  S  1  Z    0.000000   0.023531   0.000000   0.000000   0.000000
    8  S  1  X    0.000000   0.000000   0.113525   0.060006   0.265411
    9  S  1  Y    0.106389   0.000000   0.000000   0.000000   0.000000
   10  S  1  Z    0.000000   0.091653   0.000000   0.000000   0.000000
   11  S  1  X    0.000000   0.000000  -0.548080   0.628173   0.818730
   12  S  1  Y   -0.692674   0.000000   0.000000   0.000000   0.000000
   13  S  1  Z    0.000000  -0.343016   0.000000   0.000000   0.000000
   14  S  1 XX    0.000000  -0.373954   0.000000   0.000000   0.000000
   15  S  1 YY    0.000000   0.642840   0.000000   0.000000   0.000000
   16  S  1 ZZ    0.000000  -0.268886   0.000000   0.000000   0.000000
   17  S  1 XY    0.000000   0.000000   0.000000   0.000000   0.000000
   18  S  1 XZ    0.000000   0.000000   0.203225   0.968424   0.222331
   19  S  1 YZ   -0.445460   0.000000   0.000000   0.000000   0.000000
   20  O  2  S    0.000000  -0.019267  -0.005793  -0.031408   0.010780
   21  O  2  S    0.000000   0.162897   0.054195   0.037203  -1.186905
   22  O  2  S    0.000000   0.111192  -0.128806   0.473786   1.716109
   23  O  2  X    0.000000   0.392589  -0.310490   0.531898  -0.051231
   24  O  2  Y   -0.566317   0.000000   0.000000   0.000000   0.000000
   25  O  2  Z    0.000000  -0.426086  -0.548457  -0.280206   0.038230
   26  O  2  X    0.000000  -0.320000   0.590047  -0.358981   0.384328
   27  O  2  Y    0.907075   0.000000   0.000000   0.000000   0.000000
   28  O  2  Z    0.000000   0.476183   0.744930  -0.036971  -0.391184
   29  O  2 XX    0.000000  -0.003670  -0.055305   0.027116  -0.128989
   30  O  2 YY    0.000000   0.000049   0.020508  -0.030380   0.154236
   31  O  2 ZZ    0.000000   0.003621   0.034796   0.003264  -0.025247
   32  O  2 XY   -0.040002   0.000000   0.000000   0.000000   0.000000
   33  O  2 XZ    0.000000  -0.063490  -0.012473   0.030553   0.123830
   34  O  2 YZ    0.032071   0.000000   0.000000   0.000000   0.000000
   35  O  3  S    0.000000  -0.019267   0.005793   0.031408  -0.010780
   36  O  3  S    0.000000   0.162897  -0.054195  -0.037203   1.186905
   37  O  3  S    0.000000   0.111192   0.128806  -0.473786  -1.716109
   38  O  3  X    0.000000  -0.392589  -0.310490   0.531898  -0.051231
   39  O  3  Y   -0.566317   0.000000   0.000000   0.000000   0.000000
   40  O  3  Z    0.000000  -0.426086   0.548457   0.280206  -0.038230
   41  O  3  X    0.000000   0.320000   0.590047  -0.358981   0.384328
   42  O  3  Y    0.907075   0.000000   0.000000   0.000000   0.000000
   43  O  3  Z    0.000000   0.476183  -0.744930   0.036971   0.391184
   44  O  3 XX    0.000000  -0.003670   0.055305  -0.027116   0.128989
   45  O  3 YY    0.000000   0.000049  -0.020508   0.030380  -0.154236
   46  O  3 ZZ    0.000000   0.003621  -0.034796  -0.003264   0.025247
   47  O  3 XY    0.040002   0.000000   0.000000   0.000000   0.000000
   48  O  3 XZ    0.000000   0.063490  -0.012473   0.030553   0.123830
   49  O  3 YZ    0.032071   0.000000   0.000000   0.000000   0.000000

                     36         37         38         39         40
                    1.6906     2.0806     2.0858     2.0879     2.0989
                     A1         B2         A2         B1         A1  
    1  S  1  S   -0.027209   0.000000   0.000000   0.000000   0.004040
    2  S  1  S   -0.277581   0.000000   0.000000   0.000000   0.027755
    3  S  1  S   -0.627138   0.000000   0.000000   0.000000   0.077201
    4  S  1  S    2.500022   0.000000   0.000000   0.000000  -0.297364
    5  S  1  X    0.000000   0.000000   0.000000  -0.020908   0.000000
    6  S  1  Y    0.000000  -0.011808   0.000000   0.000000   0.000000
    7  S  1  Z   -0.041469   0.000000   0.000000   0.000000  -0.003690
    8  S  1  X    0.000000   0.000000   0.000000   0.078027   0.000000
    9  S  1  Y    0.000000   0.037923   0.000000   0.000000   0.000000
   10  S  1  Z    0.284820   0.000000   0.000000   0.000000  -0.005845
   11  S  1  X    0.000000   0.000000   0.000000   0.071573   0.000000
   12  S  1  Y    0.000000   0.037433   0.000000   0.000000   0.000000
   13  S  1  Z    1.122992   0.000000   0.000000   0.000000  -0.154251
   14  S  1 XX    0.223676   0.000000   0.000000   0.000000   0.020507
   15  S  1 YY   -0.393949   0.000000   0.000000   0.000000  -0.077258
   16  S  1 ZZ    0.170273   0.000000   0.000000   0.000000   0.056751
   17  S  1 XY    0.000000   0.000000   0.025046   0.000000   0.000000
   18  S  1 XZ    0.000000   0.000000   0.000000  -0.097493   0.000000
   19  S  1 YZ    0.000000  -0.015783   0.000000   0.000000   0.000000
   20  O  2  S    0.007090   0.000000   0.000000   0.000577   0.000997
   21  O  2  S    1.223709   0.000000   0.000000  -0.069508  -0.159657
   22  O  2  S   -2.249063   0.000000   0.000000   0.092860   0.263521
   23  O  2  X   -0.049891   0.000000   0.000000   0.002874  -0.037023
   24  O  2  Y    0.000000   0.026272  -0.027071   0.000000   0.000000
   25  O  2  Z    0.023691   0.000000   0.000000   0.035854   0.003956
   26  O  2  X   -0.545742   0.000000   0.000000  -0.006579   0.101028
   27  O  2  Y    0.000000  -0.044308   0.042410   0.000000   0.000000
   28  O  2  Z    0.332041   0.000000   0.000000  -0.057137  -0.027772
   29  O  2 XX    0.043085   0.000000   0.000000  -0.159847  -0.309101
   30  O  2 YY   -0.027455   0.000000   0.000000  -0.485551   0.629679
   31  O  2 ZZ   -0.015630   0.000000   0.000000   0.645398  -0.320578
   32  O  2 XY    0.000000   0.333656   0.574496   0.000000   0.000000
   33  O  2 XZ   -0.197796   0.000000   0.000000   0.226322  -0.315524
   34  O  2 YZ    0.000000   0.623841   0.413230   0.000000   0.000000
   35  O  3  S    0.007090   0.000000   0.000000  -0.000577   0.000997
   36  O  3  S    1.223709   0.000000   0.000000   0.069508  -0.159657
   37  O  3  S   -2.249063   0.000000   0.000000  -0.092860   0.263521
   38  O  3  X    0.049891   0.000000   0.000000   0.002874   0.037023
   39  O  3  Y    0.000000   0.026272   0.027071   0.000000   0.000000
   40  O  3  Z    0.023691   0.000000   0.000000  -0.035854   0.003956
   41  O  3  X    0.545742   0.000000   0.000000  -0.006579  -0.101028
   42  O  3  Y    0.000000  -0.044308  -0.042410   0.000000   0.000000
   43  O  3  Z    0.332041   0.000000   0.000000   0.057137  -0.027772
   44  O  3 XX    0.043085   0.000000   0.000000   0.159847  -0.309101
   45  O  3 YY   -0.027455   0.000000   0.000000   0.485551   0.629679
   46  O  3 ZZ   -0.015630   0.000000   0.000000  -0.645398  -0.320578
   47  O  3 XY    0.000000  -0.333656   0.574496   0.000000   0.000000
   48  O  3 XZ    0.197796   0.000000   0.000000   0.226322   0.315524
   49  O  3 YZ    0.000000   0.623841  -0.413230   0.000000   0.000000

                     41         42         43         44         45
                    2.1590     2.2295     2.2675     2.4021     2.7261
                     B1         A2         B2         A1         A1  
    1  S  1  S    0.000000   0.000000   0.000000  -0.004899  -0.039264
    2  S  1  S    0.000000   0.000000   0.000000  -0.030581   0.016116
    3  S  1  S    0.000000   0.000000   0.000000  -0.094874  -0.468713
    4  S  1  S    0.000000   0.000000   0.000000   0.109857  -1.220769
    5  S  1  X    0.027018   0.000000   0.000000   0.000000   0.000000
    6  S  1  Y    0.000000   0.000000   0.056778   0.000000   0.000000
    7  S  1  Z    0.000000   0.000000   0.000000  -0.039525   0.151126
    8  S  1  X   -0.046390   0.000000   0.000000   0.000000   0.000000
    9  S  1  Y    0.000000   0.000000  -0.180569   0.000000   0.000000
   10  S  1  Z    0.000000   0.000000   0.000000   0.104942  -0.815789
   11  S  1  X   -0.090758   0.000000   0.000000   0.000000   0.000000
   12  S  1  Y    0.000000   0.000000  -0.166914   0.000000   0.000000
   13  S  1  Z    0.000000   0.000000   0.000000   0.199248  -0.376499
   14  S  1 XX    0.000000   0.000000   0.000000  -0.451856  -0.302925
   15  S  1 YY    0.000000   0.000000   0.000000  -0.015404   0.432558
   16  S  1 ZZ    0.000000   0.000000   0.000000   0.467261  -0.129633
   17  S  1 XY    0.000000  -0.403189   0.000000   0.000000   0.000000
   18  S  1 XZ    0.015149   0.000000   0.000000   0.000000   0.000000
   19  S  1 YZ    0.000000   0.000000  -0.362105   0.000000   0.000000
   20  O  2  S    0.002661   0.000000   0.000000   0.002162  -0.027919
   21  O  2  S   -0.129528   0.000000   0.000000   0.000056  -0.605267
   22  O  2  S    0.122839   0.000000   0.000000  -0.066025   1.303759
   23  O  2  X   -0.114410   0.000000   0.000000  -0.011471   0.005186
   24  O  2  Y    0.000000   0.047383  -0.052187   0.000000   0.000000
   25  O  2  Z   -0.044649   0.000000   0.000000   0.028507   0.006925
   26  O  2  X    0.209120   0.000000   0.000000  -0.078904   0.559267
   27  O  2  Y    0.000000  -0.133191   0.174618   0.000000   0.000000
   28  O  2  Z    0.084388   0.000000   0.000000  -0.147540  -0.449236
   29  O  2 XX    0.636056   0.000000   0.000000  -0.611248   0.325015
   30  O  2 YY   -0.347908   0.000000   0.000000  -0.059533  -0.379570
   31  O  2 ZZ   -0.288148   0.000000   0.000000   0.670781   0.054555
   32  O  2 XY    0.000000  -0.431675   0.647023   0.000000   0.000000
   33  O  2 XZ    0.315208   0.000000   0.000000  -0.139222  -0.681023
   34  O  2 YZ    0.000000   0.590490  -0.352975   0.000000   0.000000
   35  O  3  S   -0.002661   0.000000   0.000000   0.002162  -0.027919
   36  O  3  S    0.129528   0.000000   0.000000   0.000056  -0.605267
   37  O  3  S   -0.122839   0.000000   0.000000  -0.066025   1.303759
   38  O  3  X   -0.114410   0.000000   0.000000   0.011471  -0.005186
   39  O  3  Y    0.000000  -0.047383  -0.052187   0.000000   0.000000
   40  O  3  Z    0.044649   0.000000   0.000000   0.028507   0.006925
   41  O  3  X    0.209120   0.000000   0.000000   0.078904  -0.559267
   42  O  3  Y    0.000000   0.133191   0.174618   0.000000   0.000000
   43  O  3  Z   -0.084388   0.000000   0.000000  -0.147540  -0.449236
   44  O  3 XX   -0.636056   0.000000   0.000000  -0.611248   0.325015
   45  O  3 YY    0.347908   0.000000   0.000000  -0.059533  -0.379570
   46  O  3 ZZ    0.288148   0.000000   0.000000   0.670781   0.054555
   47  O  3 XY    0.000000  -0.431675  -0.647023   0.000000   0.000000
   48  O  3 XZ    0.315208   0.000000   0.000000   0.139222   0.681023
   49  O  3 YZ    0.000000  -0.590490  -0.352975   0.000000   0.000000

                     46
                    2.8317
                     B1  
    1  S  1  S    0.000000
    2  S  1  S    0.000000
    3  S  1  S    0.000000
    4  S  1  S    0.000000
    5  S  1  X   -0.195358
    6  S  1  Y    0.000000
    7  S  1  Z    0.000000
    8  S  1  X    1.045952
    9  S  1  Y    0.000000
   10  S  1  Z    0.000000
   11  S  1  X    0.399598
   12  S  1  Y    0.000000
   13  S  1  Z    0.000000
   14  S  1 XX    0.000000
   15  S  1 YY    0.000000
   16  S  1 ZZ    0.000000
   17  S  1 XY    0.000000
   18  S  1 XZ    0.786405
   19  S  1 YZ    0.000000
   20  O  2  S   -0.034113
   21  O  2  S   -0.584769
   22  O  2  S    1.280468
   23  O  2  X    0.034930
   24  O  2  Y    0.000000
   25  O  2  Z   -0.043301
   26  O  2  X    0.581727
   27  O  2  Y    0.000000
   28  O  2  Z   -0.488225
   29  O  2 XX    0.313782
   30  O  2 YY   -0.424412
   31  O  2 ZZ    0.110631
   32  O  2 XY    0.000000
   33  O  2 XZ   -0.718572
   34  O  2 YZ    0.000000
   35  O  3  S    0.034113
   36  O  3  S    0.584769
   37  O  3  S   -1.280468
   38  O  3  X    0.034930
   39  O  3  Y    0.000000
   40  O  3  Z    0.043301
   41  O  3  X    0.581727
   42  O  3  Y    0.000000
   43  O  3  Z    0.488225
   44  O  3 XX   -0.313782
   45  O  3 YY    0.424412
   46  O  3 ZZ   -0.110631
   47  O  3 XY    0.000000
   48  O  3 XZ   -0.718572
   49  O  3 YZ    0.000000
 ...... END OF RHF CALCULATION ......
 STEP CPU TIME =     4.46 TOTAL CPU TIME =        4.6 (    0.1 MIN)
 TOTAL WALL CLOCK TIME=        4.6 SECONDS, CPU UTILIZATION IS 100.00%

     ---------------------------------------------------------------------
     PROPERTIES FOR THE PBE      DFT FUNCTIONAL (RHF  TYPE) DENSITY MATRIX
     ---------------------------------------------------------------------

          -----------------
          ENERGY COMPONENTS
          -----------------

         WAVEFUNCTION NORMALIZATION =       1.0000000000

                ONE ELECTRON ENERGY =    -964.5362873415
                TWO ELECTRON ENERGY =     311.2411569572
           NUCLEAR REPULSION ENERGY =     105.0498097584
                                      ------------------
                       TOTAL ENERGY =    -548.2453206259

 ELECTRON-ELECTRON POTENTIAL ENERGY =     311.2411569572
  NUCLEUS-ELECTRON POTENTIAL ENERGY =   -1512.1505354245
   NUCLEUS-NUCLEUS POTENTIAL ENERGY =     105.0498097584
                                      ------------------
             TOTAL POTENTIAL ENERGY =   -1095.8595687089
               TOTAL KINETIC ENERGY =     547.6142480830
                 VIRIAL RATIO (V/T) =       2.0011524034

          ---------------------------------------
          MULLIKEN AND LOWDIN POPULATION ANALYSES
          ---------------------------------------

     ATOMIC MULLIKEN POPULATION IN EACH MOLECULAR ORBITAL

                      1          2          3          4          5

                  2.000000   2.000000   2.000000   2.000000   2.000000

    1             2.000015   0.001956   0.000777   2.000849   1.999875
    2            -0.000007   0.999022   0.999611  -0.000424   0.000063
    3            -0.000007   0.999022   0.999611  -0.000424   0.000063

                      6          7          8          9         10

                  2.000000   2.000000   2.000000   2.000000   2.000000

    1             2.000004   1.999824   0.677306   0.350543   1.164711
    2            -0.000002   0.000088   0.661347   0.824728   0.417645
    3            -0.000002   0.000088   0.661347   0.824728   0.417645

                     11         12         13         14         15

                  2.000000   2.000000   2.000000   2.000000   2.000000

    1             1.086159   0.776923   0.473243   0.081002   0.405502
    2             0.456920   0.611538   0.763379   0.959499   0.797249
    3             0.456920   0.611538   0.763379   0.959499   0.797249

                     16

                  2.000000

    1             0.159820
    2             0.920090
    3             0.920090

               ----- POPULATIONS IN EACH AO -----
                             MULLIKEN      LOWDIN
              1  S  1  S      2.00023     1.99583
              2  S  1  S      2.01007     1.96508
              3  S  1  S      0.97315     0.59174
              4  S  1  S      0.83236     0.54013
              5  S  1  X      1.99641     1.95419
              6  S  1  Y      1.99609     1.95518
              7  S  1  Z      1.99709     1.96133
              8  S  1  X      0.67811     0.61154
              9  S  1  Y      0.67467     0.63318
             10  S  1  Z      0.83268     0.79537
             11  S  1  X      0.17844     0.28960
             12  S  1  Y      0.39631     0.44767
             13  S  1  Z      0.23017     0.39289
             14  S  1 XX      0.07349     0.27464
             15  S  1 YY      0.07783     0.24046
             16  S  1 ZZ      0.08100     0.27022
             17  S  1 XY      0.13131     0.09677
             18  S  1 XZ      0.01908     0.16173
             19  S  1 YZ      0.00000     0.01835
             20  O  2  S      1.99797     1.98073
             21  O  2  S      0.83349     0.64866
             22  O  2  S      1.05995     0.56383
             23  O  2  X      1.00528     0.96838
             24  O  2  Y      0.85112     0.81606
             25  O  2  Z      0.97352     0.94198
             26  O  2  X      0.54071     0.60780
             27  O  2  Y      0.55887     0.59987
             28  O  2  Z      0.56980     0.64571
             29  O  2 XX      0.00392     0.20327
             30  O  2 YY      0.00317     0.20429
             31  O  2 ZZ      0.00359     0.20187
             32  O  2 XY      0.00652     0.00492
             33  O  2 XZ      0.00284     0.01112
             34  O  2 YZ      0.00000     0.00358
             35  O  3  S      1.99797     1.98073
             36  O  3  S      0.83349     0.64866
             37  O  3  S      1.05995     0.56383
             38  O  3  X      1.00528     0.96838
             39  O  3  Y      0.85112     0.81606
             40  O  3  Z      0.97352     0.94198
             41  O  3  X      0.54071     0.60780
             42  O  3  Y      0.55887     0.59987
             43  O  3  Z      0.56980     0.64571
             44  O  3 XX      0.00392     0.20327
             45  O  3 YY      0.00317     0.20429
             46  O  3 ZZ      0.00359     0.20187
             47  O  3 XY      0.00652     0.00492
             48  O  3 XZ      0.00284     0.01112
             49  O  3 YZ      0.00000     0.00358

          ----- MULLIKEN ATOMIC OVERLAP POPULATIONS -----
          (OFF-DIAGONAL ELEMENTS NEED TO BE MULTIPLIED BY 2)

             1           2           3

    1   14.4785532
    2    0.3499777   8.1571017
    3    0.3499777  -0.0963337   8.1571017

          TOTAL MULLIKEN AND LOWDIN ATOMIC POPULATIONS
       ATOM         MULL.POP.    CHARGE          LOW.POP.     CHARGE
    1 S            15.178509    0.821491        15.195895    0.804105
    2 O             8.410746   -0.410746         8.402052   -0.402052
    3 O             8.410746   -0.410746         8.402052   -0.402052

          MULLIKEN SPHERICAL HARMONIC POPULATIONS
       ATOM           S       P       D      F      G      H      I    TOTAL
    1 S             5.82    8.98    0.38   0.00   0.00   0.00   0.00   15.18
    2 O             3.89    4.50    0.02   0.00   0.00   0.00   0.00    8.41
    3 O             3.89    4.50    0.02   0.00   0.00   0.00   0.00    8.41

          -------------------------------
          BOND ORDER AND VALENCE ANALYSIS     BOND ORDER THRESHOLD=0.050
          -------------------------------

                   BOND                       BOND                       BOND
  ATOM PAIR DIST  ORDER      ATOM PAIR DIST  ORDER      ATOM PAIR DIST  ORDER
    1   2  1.500  1.780        1   3  1.500  1.780        2   3  2.298  0.292

                       TOTAL       BONDED        FREE
      ATOM            VALENCE     VALENCE     VALENCE
    1 S                 3.559       3.559       0.000
    2 O                 2.071       2.071       0.000
    3 O                 2.071       2.071       0.000

          ---------------------
          ELECTROSTATIC MOMENTS
          ---------------------

 POINT   1           X           Y           Z (BOHR)    CHARGE
                 0.000000    0.000000    0.000000        0.00 (A.U.)
         DX          DY          DZ         /D/  (DEBYE)
     0.000000    0.000000   -2.741892    2.741892
 ...... END OF PROPERTY EVALUATION ......
 STEP CPU TIME =     0.00 TOTAL CPU TIME =        4.6 (    0.1 MIN)
 TOTAL WALL CLOCK TIME=        4.7 SECONDS, CPU UTILIZATION IS  99.78%
               580000  WORDS OF DYNAMIC MEMORY USED
 EXECUTION OF GAMESS TERMINATED NORMALLY Thu Feb 26 00:16:36 2015
 DDI: 263624 bytes (0.3 MB / 0 MWords) used by master data server.

 ----------------------------------------
 CPU timing information for all processes
 ========================================
 0: 4.629 + 0.24 = 4.654
 ----------------------------------------
 ddikick.x: exited gracefully.
----- accounting info -----
Files used on the master node dftfe.crc.nd.edu were:
-rw-r--r-- 1 pmehta1 campus   37475 Feb 26 00:16 /tmp/gamess.dat
-rw-r--r-- 1 pmehta1 campus     142 Feb 26 00:16 /tmp/gamess.F05
-rw-r--r-- 1 pmehta1 campus 2160288 Feb 26 00:16 /tmp/gamess.F08
-rw-r--r-- 1 pmehta1 campus 1220440 Feb 26 00:16 /tmp/gamess.F10
Thu Feb 26 00:16:39 EST 2015
0.250u 0.173s 0:08.08 5.1%	0+0k 0+104io 0pf+0w
