----- GAMESS execution script 'rungms' -----
This job is running on host dftfe.crc.nd.edu
under operating system Linux at Thu Feb 26 01:14:34 EST 2015
Available scratch disk space (Kbyte units) at beginning of the job is
Filesystem     1K-blocks     Used Available Use% Mounted on
/dev/sda2      147771864 22819460 117445972  17% /
GAMESS temporary binary files will be written to /tmp
GAMESS supplementary output files will be written to /tmp
Copying input file NO2.inp to your run's scratch directory...

 Distributed Data Interface kickoff program.
 Initiating 1 compute processes on 1 nodes to run the following command:
 /opt/crc/gamess/2012R1/gamess/gamess.00.x NO2 

          ******************************************************
          *         GAMESS VERSION =  1 MAY 2012 (R1)          *
          *             FROM IOWA STATE UNIVERSITY             *
          * M.W.SCHMIDT, K.K.BALDRIDGE, J.A.BOATZ, S.T.ELBERT, *
          *   M.S.GORDON, J.H.JENSEN, S.KOSEKI, N.MATSUNAGA,   *
          *          K.A.NGUYEN, S.J.SU, T.L.WINDUS,           *
          *       TOGETHER WITH M.DUPUIS, J.A.MONTGOMERY       *
          *         J.COMPUT.CHEM.  14, 1347-1363(1993)        *
          **************** 64 BIT LINUX VERSION ****************

  SINCE 1993, STUDENTS AND POSTDOCS WORKING AT IOWA STATE UNIVERSITY
  AND ALSO IN THEIR VARIOUS JOBS AFTER LEAVING ISU HAVE MADE IMPORTANT
  CONTRIBUTIONS TO THE CODE:
     IVANA ADAMOVIC, CHRISTINE AIKENS, YURI ALEXEEV, POOJA ARORA,
     ANDREY ASADCHEV, ROB BELL, PRADIPTA BANDYOPADHYAY, JONATHAN BENTZ,
     BRETT BODE, GALINA CHABAN, WEI CHEN, CHEOL HO CHOI, PAUL DAY,
     ALBERT DEFUSCO, TIM DUDLEY, DMITRI FEDOROV, GRAHAM FLETCHER,
     MARK FREITAG, KURT GLAESEMANN, DAN KEMP, GRANT MERRILL,
     NORIYUKI MINEZAWA, JONATHAN MULLIN, TAKESHI NAGATA,
     SEAN NEDD, HEATHER NETZLOFF, BOSILJKA NJEGIC, RYAN OLSON, MIKE PAK,
     JIM SHOEMAKER, LYUDMILA SLIPCHENKO, SAROM SOK, JIE SONG,
     TETSUYA TAKETSUGU, SIMON WEBB, SOOHAENG YOO, FEDERICO ZAHARIEV

  ADDITIONAL CODE HAS BEEN PROVIDED BY COLLABORATORS IN OTHER GROUPS:
     IOWA STATE UNIVERSITY:
          JOE IVANIC, LAIMUTIS BYTAUTAS, KLAUS RUEDENBERG
     UNIVERSITY OF TOKYO: KIMIHIKO HIRAO, TAKAHITO NAKAJIMA,
          TAKAO TSUNEDA, MUNEAKI KAMIYA, SUSUMU YANAGISAWA,
          KIYOSHI YAGI, MAHITO CHIBA, SEIKEN TOKURA, NAOAKI KAWAKAMI
     UNIVERSITY OF AARHUS: FRANK JENSEN
     UNIVERSITY OF IOWA: VISVALDAS KAIRYS, HUI LI
     NATIONAL INST. OF STANDARDS AND TECHNOLOGY: WALT STEVENS, DAVID GARMER
     UNIVERSITY OF PISA: BENEDETTA MENNUCCI, JACOPO TOMASI
     UNIVERSITY OF MEMPHIS: HENRY KURTZ, PRAKASHAN KORAMBATH
     UNIVERSITY OF ALBERTA: TOBY ZENG, MARIUSZ KLOBUKOWSKI
     UNIVERSITY OF NEW ENGLAND: MARK SPACKMAN
     MIE UNIVERSITY: HIROAKI UMEDA
     MICHIGAN STATE UNIVERSITY:
          KAROL KOWALSKI, MARTA WLOCH, JEFFREY GOUR, JESSE LUTZ, PIOTR PIECUCH
     UNIVERSITY OF SILESIA: MONIKA MUSIAL, STANISLAW KUCHARSKI
     FACULTES UNIVERSITAIRES NOTRE-DAME DE LA PAIX:
          OLIVIER QUINET, BENOIT CHAMPAGNE
     UNIVERSITY OF CALIFORNIA - SANTA BARBARA: BERNARD KIRTMAN
     INSTITUTE FOR MOLECULAR SCIENCE:
          KAZUYA ISHIMURA, MICHIO KATOUDA, AND SHIGERU NAGASE
     UNIVERSITY OF NOTRE DAME: DAN CHIPMAN
     KYUSHU UNIVERSITY:
          HARUYUKI NAKANO,
          FENG LONG GU, JACEK KORCHOWIEC, MARCIN MAKOWSKI, AND YURIKO AOKI,
          HIROTOSHI MORI AND EISAKU MIYOSHI
     PENNSYLVANIA STATE UNIVERSITY:
          TZVETELIN IORDANOV, CHET SWALINA, JONATHAN SKONE,
          SHARON HAMMES-SCHIFFER
     WASEDA UNIVERSITY:
          MASATO KOBAYASHI, TOMOKO AKAMA, TSUGUKI TOUMA,
          TAKESHI YOSHIKAWA, YASUHIRO IKABATA, HIROMI NAKAI
     UNIVERSITY OF NEBRASKA:
          PEIFENG SU, DEJUN SI, NANDUN THELLAMUREGE, YALI WANG, HUI LI
     UNIVERSITY OF ZURICH:
          ROBERTO PEVERATI, KIM BALDRIDGE
     N. COPERNICUS UNIVERSITY AND JACKSON STATE UNIVERSITY:
          MARIA BARYSZ

 EXECUTION OF GAMESS BEGUN Thu Feb 26 01:14:34 2015

            ECHO OF THE FIRST FEW INPUT CARDS -
 INPUT CARD>!   File created by the GAMESS Input Deck Generator Plugin for Avogadro         
 INPUT CARD> $BASIS GBASIS=PC1 $END                                                         
 INPUT CARD> $CONTRL COORD=ZMT SCFTYP=ROHF ISPHER=1 RUNTYP=OPTIMIZE MULT=2 DFTTYP=PBE $END  
 INPUT CARD>                                                                                
 INPUT CARD> $DATA                                                                          
 INPUT CARD>Title                                                                           
 INPUT CARD>Cnv 2                                                                           
 INPUT CARD>                                                                                
 INPUT CARD>N                                                                               
 INPUT CARD>O 1 rso                                                                         
 INPUT CARD>O 1 rso 2 ang                                                                   
 INPUT CARD>                                                                                
 INPUT CARD>rso = 1.20                                                                      
 INPUT CARD>ang = 132                                                                       
 INPUT CARD> $END                                                                           
 INPUT CARD>                                                                                
    1000000 WORDS OF MEMORY AVAILABLE

     BASIS OPTIONS
     -------------
     GBASIS=PC1          IGAUSS=       0      POLAR=NONE    
     NDFUNC=       0     NFFUNC=       0     DIFFSP=       F
     NPFUNC=       0      DIFFS=       F     BASNAM=        


     RUN TITLE
     ---------
 Title                                                                           

 THE POINT GROUP OF THE MOLECULE IS CNV     
 THE ORDER OF THE PRINCIPAL AXIS IS     2

 YOUR FULLY SUBSTITUTED Z-MATRIX IS
 N   
 O      1   1.2000000
 O      1   1.2000000  2  132.0000

 THE MOMENTS OF INERTIA ARE (AMU-ANGSTROM**2)
 IXX=     2.320   IYY=    38.445   IZZ=    40.765

 ATOM      ATOMIC                      COORDINATES (BOHR)
           CHARGE         X                   Y                   Z
 N           7.0     0.0000000000        0.0000000000       -0.6415263190
 O           8.0    -2.0716207107        0.0000000000        0.2808186464
 O           8.0     2.0716207107        0.0000000000        0.2808186464

          INTERNUCLEAR DISTANCES (ANGS.)
          ------------------------------

                1 N          2 O          3 O     

   1 N       0.0000000    1.2000000 *  1.2000000 *
   2 O       1.2000000 *  0.0000000    2.1925091 *
   3 O       1.2000000 *  2.1925091 *  0.0000000  

  * ... LESS THAN  3.000


     ATOMIC BASIS SET
     ----------------
 THE CONTRACTED PRIMITIVE FUNCTIONS HAVE BEEN UNNORMALIZED
 THE CONTRACTED BASIS FUNCTIONS ARE NOW NORMALIZED TO UNITY

  SHELL TYPE  PRIMITIVE        EXPONENT          CONTRACTION COEFFICIENT(S)

 N         

      1   S       1          1742.2000000    0.005490042803
      1   S       2           262.2100000    0.040927729673
      1   S       3            59.5850000    0.181362547987
      1   S       4            16.4890000    0.462596156466
      1   S       5             4.9945000    0.454190618706

      2   S       6           262.2100000   -0.000629425978
      2   S       7            59.5850000   -0.005333937722
      2   S       8            16.4890000   -0.072970258515
      2   S       9             4.9945000   -0.182799906353
      2   S      10             0.7867300    1.101035476621

      3   S      11             0.2283700    1.000000000000

      4   P      12            13.1320000    0.065120831971
      4   P      13             2.8108000    0.339661331645
      4   P      14             0.7635100    0.735293814486

      5   P      15             0.1956000    1.000000000000

      6   D      16             0.9000000    1.000000000000

 O         

     13   S      17          2306.7000000    0.005424388755
     13   S      18           347.1500000    0.040474749465
     13   S      19            78.8900000    0.180219634554
     13   S      20            21.8760000    0.462370311787
     13   S      21             6.6646000    0.454888396263

     14   S      22           347.1500000   -0.000655003786
     14   S      23            78.8900000   -0.005362052952
     14   S      24            21.8760000   -0.074902158894
     14   S      25             6.6646000   -0.181442579655
     14   S      26             1.0669000    1.102006874042

     15   S      27             0.3070000    1.000000000000

     16   P      28            17.0220000    0.068979967443
     16   P      29             3.6838000    0.351985516325
     16   P      30             0.9923400    0.724036547822

     17   P      31             0.2448700    1.000000000000

     18   D      32             1.0000000    1.000000000000

 TOTAL NUMBER OF BASIS SET SHELLS             =   18
 NUMBER OF CARTESIAN GAUSSIAN BASIS FUNCTIONS =   45
 NOTE: THIS RUN WILL RESTRICT THE MO VARIATION SPACE TO SPHERICAL HARMONICS.
 THE NUMBER OF ORBITALS KEPT IN THE VARIATIONAL SPACE WILL BE PRINTED LATER.
 NUMBER OF ELECTRONS                          =   23
 CHARGE OF MOLECULE                           =    0
 SPIN MULTIPLICITY                            =    2
 NUMBER OF OCCUPIED ORBITALS (ALPHA)          =   12
 NUMBER OF OCCUPIED ORBITALS (BETA )          =   11
 TOTAL NUMBER OF ATOMS                        =    3
 THE NUCLEAR REPULSION ENERGY IS       64.8367196565

     LEBEDEV GRID-BASED DFT OPTIONS
     ------------------------------
     DFTTYP=PBE     
     NRAD  =      96     NLEB  =     302
     NRAD0 =      24     NLEB0 =     110
     SWOFF =    5.00E-03 (PURE SCF -> DFT)
     SWITCH=    3.00E-04 (COARSE -> TIGHT GRID)
     THRESH=    0.00E+00 GTHRE=    1.00E+00

 GRIMME'S EMPIRICAL DISPERSION CORRECTION= F

     $CONTRL OPTIONS
     ---------------
 SCFTYP=ROHF         RUNTYP=OPTIMIZE     EXETYP=RUN     
 MPLEVL=       0     CITYP =NONE         CCTYP =NONE         VBTYP =NONE    
 DFTTYP=PBE          TDDFT =NONE    
 MULT  =       2     ICHARG=       0     NZVAR =       0     COORD =ZMT     
 PP    =NONE         RELWFN=NONE         LOCAL =NONE         NUMGRD=       F
 ISPHER=       1     NOSYM =       0     MAXIT =      30     UNITS =ANGS    
 PLTORB=       F     MOLPLT=       F     AIMPAC=       F     FRIEND=        
 NPRINT=       7     IREST =       0     GEOM  =INPUT   
 NORMF =       0     NORMP =       0     ITOL  =      20     ICUT  =       9
 INTTYP=BEST         GRDTYP=BEST         QMTTOL= 1.0E-06

     $SYSTEM OPTIONS
     ---------------
  REPLICATED MEMORY=     1000000 WORDS (ON EVERY NODE).
 DISTRIBUTED MEMDDI=           0 MILLION WORDS IN AGGREGATE,
 MEMDDI DISTRIBUTED OVER   1 PROCESSORS IS           0 WORDS/PROCESSOR.
 TOTAL MEMORY REQUESTED ON EACH PROCESSOR=     1000000 WORDS.
 TIMLIM=      525600.00 MINUTES, OR     365.0 DAYS.
 PARALL= F  BALTYP=  DLB     KDIAG=    0  COREFL= F
 MXSEQ2=     300 MXSEQ3=     150

          ----------------
          PROPERTIES INPUT
          ----------------

     MOMENTS            FIELD           POTENTIAL          DENSITY
 IEMOM =       1   IEFLD =       0   IEPOT =       0   IEDEN =       0
 WHERE =COMASS     WHERE =NUCLEI     WHERE =NUCLEI     WHERE =NUCLEI  
 OUTPUT=BOTH       OUTPUT=BOTH       OUTPUT=BOTH       OUTPUT=BOTH    
 IEMINT=       0   IEFINT=       0                     IEDINT=       0
                                                       MORB  =       0
          EXTRAPOLATION IN EFFECT
          DIIS IN EFFECT
 ORBITAL PRINTING OPTION: NPREO=     1    45     2     1

     -------------------------------
     INTEGRAL TRANSFORMATION OPTIONS
     -------------------------------
     NWORD  =            0
     CUTOFF = 1.0E-09     MPTRAN =       0
     DIRTRF =       F     AOINTS =DUP     

          ----------------------
          INTEGRAL INPUT OPTIONS
          ----------------------
 NOPK  =       1 NORDER=       0 SCHWRZ=       F

   --- ENCODED Z MATRIX ---
 COORD  TYPE   I   J   K   L   M   N
    1      1    3   1
    2      1    2   1
    3      2    2   1   3

 THE DETERMINANT OF THE G MATRIX IS 10**(    -4)

 THE DETERMINANT OF THE G MATRIX IS 10**(    -4)
 * * * WARNING * * *
 YOUR B MATRIX HAS A SMALL DETERMINANT.
 THIS SUGGESTS YOU MAY HAVE BADLY CHOSEN COORDINATES.

     ------------------------------------------
     THE POINT GROUP IS CNV, NAXIS= 2, ORDER= 4
     ------------------------------------------

 -- VARIATIONAL SPACE WILL BE RESTRICTED TO PURE SPHERICAL HARMONICS ONLY --
 AFTER EXCLUDING CONTAMINANT COMBINATIONS FROM THE CARTESIAN GAUSSIAN BASIS
 SET, THE NUMBER OF SPHERICAL HARMONICS KEPT IN THE VARIATION SPACE IS   42

     DIMENSIONS OF THE SYMMETRY SUBSPACES ARE
 A1  =   17     A2  =    5     B1  =   13     B2  =    7

 ..... DONE SETTING UP THE RUN .....
 STEP CPU TIME =     0.01 TOTAL CPU TIME =        0.0 (    0.0 MIN)
 TOTAL WALL CLOCK TIME=        0.0 SECONDS, CPU UTILIZATION IS  50.00%


          -----------------------------
          STATIONARY POINT LOCATION RUN
          -----------------------------

 OBTAINING INITIAL HESSIAN, HESS=GUESS   
 CARTESIAN COORDINATE OPTIMIZATION USING BADGER'S RULE FORCE CONSTANT GUESS

          PARAMETERS CONTROLLING GEOMETRY SEARCH ARE
          METHOD =QA                  UPHESS =BFGS    
          NNEG   =         0          NFRZ   =         0
          NSTEP  =        50          IFOLOW =         1
          HESS   =GUESS               RESTAR =         F
          IHREP  =         0          HSSEND =         F
          NPRT   =         0          NPUN   =         0
          OPTTOL = 1.000E-04          RMIN   = 1.500E-03
          RMAX   = 1.000E-01          RLIM   = 7.000E-02
          DXMAX  = 3.000E-01          PURIFY =         F
          MOVIE  =         F          TRUPD  =         T
          TRMAX  = 5.000E-01          TRMIN  = 5.000E-02
          ITBMAT =         5          STPT   =         F
          STSTEP = 1.000E-02          PROJCT=          T

 BEGINNING GEOMETRY SEARCH POINT NSERCH=   0 ...

 COORDINATES OF SYMMETRY UNIQUE ATOMS (ANGS)
   ATOM   CHARGE       X              Y              Z
 ------------------------------------------------------------
 N           7.0   0.0000000000   0.0000000000  -0.3394811328
 O           8.0   1.0962545492   0.0000000000   0.1486028389
 COORDINATES OF ALL ATOMS ARE (ANGS)
   ATOM   CHARGE       X              Y              Z
 ------------------------------------------------------------
 N           7.0   0.0000000000   0.0000000000  -0.3394811328
 O           8.0  -1.0962545492   0.0000000000   0.1486028389
 O           8.0   1.0962545492   0.0000000000   0.1486028389

 THE CURRENT FULLY SUBSTITUTED Z-MATRIX IS
 N   
 O      1   1.2000000
 O      1   1.2000000  2   132.0000000

          ********************
          1 ELECTRON INTEGRALS
          ********************
 ...... END OF ONE-ELECTRON INTEGRALS ......
 STEP CPU TIME =     0.00 TOTAL CPU TIME =        0.0 (    0.0 MIN)
 TOTAL WALL CLOCK TIME=        0.0 SECONDS, CPU UTILIZATION IS  33.33%

          -------------
          GUESS OPTIONS
          -------------
          GUESS =HUCKEL            NORB  =       0          NORDER=       0
          MIX   =       F          PRTMO =       F          PUNMO =       F
          TOLZ  = 1.0E-08          TOLE  = 1.0E-05
          SYMDEN=       F          PURIFY=       F

 INITIAL GUESS ORBITALS GENERATED BY HUCKEL   ROUTINE.
 HUCKEL GUESS REQUIRES     18183 WORDS.

 STATISTICS FOR GENERATION OF SYMMETRY ORBITAL -Q- MATRIX
 NUMBER OF CARTESIAN ATOMIC ORBITALS=         45
 NUMBER OF SPHERICAL CONTAMINANTS DROPPED=     3
 NUMBER OF LINEARLY DEPENDENT MOS DROPPED=     0
 TOTAL NUMBER OF MOS IN VARIATION SPACE=      42

 SYMMETRIES FOR INITIAL GUESS ORBITALS FOLLOW.  ALPHA SET(S).
    12 ORBITALS ARE OCCUPIED (    3 CORE ORBITALS).
     4=?A1      5=?B1      6=A1       7=B2       8=A1       9=B1      10=A2  
    11=B1      12=A1      13=B2      14=B1      15=A1      16=A1      17=A1  
    18=A1      19=A1      20=A1      21=A1      22=A1  

 SYMMETRIES FOR INITIAL GUESS ORBITALS FOLLOW.   BETA SET(S).
    11 ORBITALS ARE OCCUPIED (    3 CORE ORBITALS).
     4=?A1      5=?B1      6=A1       7=B2       8=A1       9=B1      10=A2  
    11=B1      12=A1      13=B2      14=B1      15=A1      16=A1      17=A1  
    18=A1      19=A1      20=A1      21=A1  
 ...... END OF INITIAL ORBITAL SELECTION ......
 STEP CPU TIME =     0.01 TOTAL CPU TIME =        0.0 (    0.0 MIN)
 TOTAL WALL CLOCK TIME=        0.0 SECONDS, CPU UTILIZATION IS  66.67%

                    ----------------------
                    AO INTEGRAL TECHNOLOGY
                    ----------------------
     S,P,L SHELL ROTATED AXIS INTEGRALS, REPROGRAMMED BY
        KAZUYA ISHIMURA (IMS) AND JOSE SIERRA (SYNSTAR).
     S,P,D,L SHELL ROTATED AXIS INTEGRALS PROGRAMMED BY
        KAZUYA ISHIMURA (INSTITUTE FOR MOLECULAR SCIENCE).
     S,P,D,F,G SHELL TO TOTAL QUARTET ANGULAR MOMENTUM SUM 5,
        ERIC PROGRAM BY GRAHAM FLETCHER (ELORET AND NASA ADVANCED
        SUPERCOMPUTING DIVISION, AMES RESEARCH CENTER).
     S,P,D,F,G,L SHELL GENERAL RYS QUADRATURE PROGRAMMED BY
        MICHEL DUPUIS (PACIFIC NORTHWEST NATIONAL LABORATORY).

          --------------------
          2 ELECTRON INTEGRALS
          --------------------

 THE -PK- OPTION IS OFF, THE INTEGRALS ARE NOT IN SUPERMATRIX FORM.
 STORING   15000 INTEGRALS/RECORD ON DISK, USING 12 BYTES/INTEGRAL.
 TWO ELECTRON INTEGRAL EVALUATION REQUIRES   90567 WORDS OF MEMORY.
 II,JST,KST,LST =  1  1  1  1 NREC =         1 INTLOC =    1
 II,JST,KST,LST =  2  1  1  1 NREC =         1 INTLOC =    2
 II,JST,KST,LST =  3  1  1  1 NREC =         1 INTLOC =    7
 II,JST,KST,LST =  4  1  1  1 NREC =         1 INTLOC =   22
 II,JST,KST,LST =  5  1  1  1 NREC =         1 INTLOC =   67
 II,JST,KST,LST =  6  1  1  1 NREC =         1 INTLOC =  214
 II,JST,KST,LST =  7  1  1  1 NREC =         1 INTLOC = 1189
 II,JST,KST,LST =  8  1  1  1 NREC =         1 INTLOC = 1189
 II,JST,KST,LST =  9  1  1  1 NREC =         1 INTLOC = 1189
 II,JST,KST,LST = 10  1  1  1 NREC =         1 INTLOC = 1189
 II,JST,KST,LST = 11  1  1  1 NREC =         1 INTLOC = 1189
 II,JST,KST,LST = 12  1  1  1 NREC =         1 INTLOC = 1189
 II,JST,KST,LST = 13  1  1  1 NREC =         1 INTLOC = 1189
 II,JST,KST,LST = 14  1  1  1 NREC =         1 INTLOC = 2452
 II,JST,KST,LST = 15  1  1  1 NREC =         1 INTLOC = 4354
 II,JST,KST,LST = 16  1  1  1 NREC =         1 INTLOC = 7046
 II,JST,KST,LST = 17  1  1  1 NREC =         2 INTLOC = 3706
 II,JST,KST,LST = 18  1  1  1 NREC =         3 INTLOC =10101
 TOTAL NUMBER OF NONZERO TWO-ELECTRON INTEGRALS =              126736
          9 INTEGRAL RECORDS WERE STORED ON DISK FILE  8.
  ...... END OF TWO-ELECTRON INTEGRALS .....
 STEP CPU TIME =     0.08 TOTAL CPU TIME =        0.1 (    0.0 MIN)
 TOTAL WALL CLOCK TIME=        0.1 SECONDS, CPU UTILIZATION IS  83.33%

          ---------------------------
               RO-PBE SCF CALCULATION
          ---------------------------

     NUCLEAR ENERGY =        64.8367196565
     MAXIT = 30     NPUNCH=  2     MULT=  2
     EXTRAP=T  DAMP=F  SHIFT=F  RSTRCT=F  DIIS=T  SOSCF=F
         DENSITY MATRIX CONVERGENCE THRESHOLD=  1.00E-05
     COARSE -> FINE DFT GRID SWITCH THRESHOLD=  3.00E-04 (SWITCH IN $DFT)
                   HF -> DFT SWITCH THRESHOLD=  5.00E-03 (SWOFF IN $DFT)
     ROHF CANONICALIZATION PARAMETERS
             C-C     O-O     V-V
     ALPHA -0.5000  0.5000  1.5000
     BETA   1.5000  0.5000 -0.5000
     MEMORY REQUIRED FOR UHF/ROHF ITERS=    185313 WORDS.

 DFT CODE IS SWITCHING FROM THE FINE GRID NRAD= 96,  NLEB=  302
                      TO THE COARSE GRID NRAD0= 24, NLEB0=  110

     EXCHANGE FUNCTIONAL   =PBE       
     CORRELATION FUNCTIONAL=PBE       
     DFT THRESHOLD         =.460E-07
     GRID CHANGE THRESHOLD =.300E-03
 FOR AN EULER-MACLAURIN QUADRATURE USING  96 RADIAL POINTS:
 SMALLEST GAUSSIAN PRIMITIVE EXPONENT=        0.1956000000 OF TYPE -P-
 ON ATOM NUMBER   1 HAS RADIAL NORMALIZATION=  1.000000
  LARGEST GAUSSIAN PRIMITIVE EXPONENT=     2306.7000000000 OF TYPE -S-
 ON ATOM NUMBER   2 HAS RADIAL NORMALIZATION=  1.000000
 DFT IS SWITCHED OFF, PERFORMING PURE SCF UNTIL SWOFF THRESHOLD IS REACHED.

 ITER EX      TOTAL ENERGY        E CHANGE  DENSITY CHANGE    DIIS ERROR
   1  0     -203.2840446641  -203.2840446641   0.277653102   0.770441673
          * * *   INITIATING DIIS PROCEDURE   * * *
   2  1     -203.7733385870    -0.4892939228   0.446534342   0.285450180
   3  2     -203.7495785338     0.0237600531   0.195720960   0.258007839
   4  3     -203.9559967883    -0.2064182545   0.018298586   0.013136575
   5  4     -203.9569686793    -0.0009718910   0.007091678   0.008077085
   6  5     -203.9571511039    -0.0001824247   0.004755017   0.002495442
 CONVERGED TO SWOFF, SO DFT CALCULATION IS NOW SWITCHED ON.
          * * *   INITIATING DIIS PROCEDURE   * * *
   7  6     -204.8250179770    -0.8678668731   0.236499722   0.114339194
   8  7     -204.8078591183     0.0171588587   0.178618885   0.166058055
   9  8     -204.8373372477    -0.0294781293   0.054002334   0.090007605
  10  9     -204.8539010723    -0.0165638246   0.011187630   0.021764239
  11 10     -204.8545383792    -0.0006373069   0.000762869   0.001047166
  12 11     -204.8545406158    -0.0000022366   0.000300454   0.000262784
  13 12     -204.8545408172    -0.0000002014   0.000026401   0.000032781
 DFT CODE IS SWITCHING BACK TO THE FINE GRID
          * * *   INITIATING DIIS PROCEDURE   * * *
  14 13     -204.8559574049    -0.0014165878   0.002293555   0.001506766
  15 14     -204.8559600647    -0.0000026598   0.000736795   0.000965507
  16 15     -204.8559603964    -0.0000003317   0.000637401   0.000741952
  17 16     -204.8559611621    -0.0000007657   0.000239534   0.000340846
  18 17     -204.8559613659    -0.0000002039   0.000010701   0.000009273
  19 18     -204.8559613662    -0.0000000003   0.000000781   0.000001679
  20 19     -204.8559613662     0.0000000000   0.000000135   0.000000285

          -----------------
          DENSITY CONVERGED
          -----------------
     TIME TO FORM FOCK OPERATORS=       4.6 SECONDS (       0.2 SEC/ITER)
     TIME TO SOLVE SCF EQUATIONS=       0.0 SECONDS (       0.0 SEC/ITER)

 FINAL RO-PBE ENERGY IS     -204.8559613662 AFTER  20 ITERATIONS
 DFT EXCHANGE + CORRELATION ENERGY =       -23.7403532447
 TOTAL ELECTRON NUMBER             =        23.0000003246

          --------------------
          SPIN SZ   =    0.500
          S-SQUARED =    0.750
          --------------------

          ------------
          EIGENVECTORS
          ------------

                      1          2          3          4          5
                  -18.8394   -18.8393   -14.1948    -1.1759    -1.0298
                     B1         A1         A1         A1         B1  
    1  N  1  S    0.000000   0.000059   0.994515  -0.151605   0.000000
    2  N  1  S    0.000000  -0.002039   0.035507   0.324438   0.000000
    3  N  1  S    0.000000   0.015296  -0.010921   0.161299   0.000000
    4  N  1  X    0.000457   0.000000   0.000000   0.000000   0.329071
    5  N  1  Y    0.000000   0.000000   0.000000   0.000000   0.000000
    6  N  1  Z    0.000000  -0.000099   0.002332   0.129210   0.000000
    7  N  1  X   -0.010560   0.000000   0.000000   0.000000   0.012419
    8  N  1  Y    0.000000   0.000000   0.000000   0.000000   0.000000
    9  N  1  Z    0.000000   0.004834  -0.001955   0.014294   0.000000
   10  N  1 XX    0.000000  -0.001211   0.001758   0.022676   0.000000
   11  N  1 YY    0.000000   0.000522  -0.000945  -0.016472   0.000000
   12  N  1 ZZ    0.000000   0.000689  -0.000813  -0.006204   0.000000
   13  N  1 XY    0.000000   0.000000   0.000000   0.000000   0.000000
   14  N  1 XZ    0.001076   0.000000   0.000000   0.000000   0.031445
   15  N  1 YZ    0.000000   0.000000   0.000000   0.000000   0.000000
   16  O  2  S    0.703345   0.703302   0.000098  -0.110761   0.139159
   17  O  2  S    0.026865   0.026110  -0.000744   0.224154  -0.282478
   18  O  2  S   -0.017265  -0.015175   0.001265   0.215082  -0.320534
   19  O  2  X    0.001475   0.001237  -0.001272   0.138753  -0.123951
   20  O  2  Y    0.000000   0.000000   0.000000   0.000000   0.000000
   21  O  2  Z   -0.000641  -0.000564   0.000562  -0.045537   0.064025
   22  O  2  X   -0.004025  -0.004898  -0.000217   0.043284  -0.046485
   23  O  2  Y    0.000000   0.000000   0.000000   0.000000   0.000000
   24  O  2  Z    0.003192   0.000997   0.000949  -0.013771   0.024915
   25  O  2 XX    0.000187  -0.000349  -0.001244   0.015739  -0.006115
   26  O  2 YY    0.000126  -0.000005   0.000983  -0.008288   0.005078
   27  O  2 ZZ   -0.000313   0.000354   0.000261  -0.007451   0.001037
   28  O  2 XY    0.000000   0.000000   0.000000   0.000000   0.000000
   29  O  2 XZ    0.000247  -0.000132   0.001418  -0.009838   0.011014
   30  O  2 YZ    0.000000   0.000000   0.000000   0.000000   0.000000
   31  O  3  S   -0.703345   0.703302   0.000098  -0.110761  -0.139159
   32  O  3  S   -0.026865   0.026110  -0.000744   0.224154   0.282478
   33  O  3  S    0.017265  -0.015175   0.001265   0.215082   0.320534
   34  O  3  X    0.001475  -0.001237   0.001272  -0.138753  -0.123951
   35  O  3  Y    0.000000   0.000000   0.000000   0.000000   0.000000
   36  O  3  Z    0.000641  -0.000564   0.000562  -0.045537  -0.064025
   37  O  3  X   -0.004025   0.004898   0.000217  -0.043284  -0.046485
   38  O  3  Y    0.000000   0.000000   0.000000   0.000000   0.000000
   39  O  3  Z   -0.003192   0.000997   0.000949  -0.013771  -0.024915
   40  O  3 XX   -0.000187  -0.000349  -0.001244   0.015739   0.006115
   41  O  3 YY   -0.000126  -0.000005   0.000983  -0.008288  -0.005078
   42  O  3 ZZ    0.000313   0.000354   0.000261  -0.007451  -0.001037
   43  O  3 XY    0.000000   0.000000   0.000000   0.000000   0.000000
   44  O  3 XZ    0.000247   0.000132  -0.001418   0.009838   0.011014
   45  O  3 YZ    0.000000   0.000000   0.000000   0.000000   0.000000

                      6          7          8          9         10
                   -0.5758    -0.5042    -0.4898    -0.4679    -0.3299
                     A1         B2         B1         A1         A2  
    1  N  1  S    0.122024   0.000000   0.000000   0.046653   0.000000
    2  N  1  S   -0.312295   0.000000   0.000000  -0.086352   0.000000
    3  N  1  S   -0.276116   0.000000   0.000000  -0.198560   0.000000
    4  N  1  X    0.000000   0.000000   0.364555   0.000000   0.000000
    5  N  1  Y    0.000000   0.483787   0.000000   0.000000   0.000000
    6  N  1  Z    0.002613   0.000000   0.000000   0.454683   0.000000
    7  N  1  X    0.000000   0.000000   0.017671   0.000000   0.000000
    8  N  1  Y    0.000000   0.228512   0.000000   0.000000   0.000000
    9  N  1  Z    0.011999   0.000000   0.000000   0.198864   0.000000
   10  N  1 XX    0.006226   0.000000   0.000000  -0.030531   0.000000
   11  N  1 YY   -0.006036   0.000000   0.000000  -0.005519   0.000000
   12  N  1 ZZ   -0.000190   0.000000   0.000000   0.036050   0.000000
   13  N  1 XY    0.000000   0.000000   0.000000   0.000000  -0.051719
   14  N  1 XZ    0.000000   0.000000   0.006028   0.000000   0.000000
   15  N  1 YZ    0.000000   0.025273   0.000000   0.000000   0.000000
   16  O  2  S   -0.115363   0.000000  -0.078547   0.013645   0.000000
   17  O  2  S    0.235935   0.000000   0.161139  -0.024616   0.000000
   18  O  2  S    0.394869   0.000000   0.256288  -0.053980   0.000000
   19  O  2  X   -0.225986   0.000000  -0.314913   0.201973   0.000000
   20  O  2  Y    0.000000   0.314177   0.000000   0.000000   0.492938
   21  O  2  Z    0.106517   0.000000   0.197230   0.247064   0.000000
   22  O  2  X   -0.102954   0.000000  -0.177903   0.113610   0.000000
   23  O  2  Y    0.000000   0.158274   0.000000   0.000000   0.327809
   24  O  2  Z    0.052512   0.000000   0.111607   0.127571   0.000000
   25  O  2 XX   -0.013026   0.000000  -0.011504   0.020895   0.000000
   26  O  2 YY    0.009489   0.000000   0.010826  -0.004195   0.000000
   27  O  2 ZZ    0.003538   0.000000   0.000678  -0.016699   0.000000
   28  O  2 XY    0.000000   0.026602   0.000000   0.000000   0.017706
   29  O  2 XZ    0.011797   0.000000   0.016306   0.013222   0.000000
   30  O  2 YZ    0.000000  -0.010652   0.000000   0.000000  -0.007960
   31  O  3  S   -0.115363   0.000000   0.078547   0.013645   0.000000
   32  O  3  S    0.235935   0.000000  -0.161139  -0.024616   0.000000
   33  O  3  S    0.394869   0.000000  -0.256288  -0.053980   0.000000
   34  O  3  X    0.225986   0.000000  -0.314913  -0.201973   0.000000
   35  O  3  Y    0.000000   0.314177   0.000000   0.000000  -0.492938
   36  O  3  Z    0.106517   0.000000  -0.197230   0.247064   0.000000
   37  O  3  X    0.102954   0.000000  -0.177903  -0.113610   0.000000
   38  O  3  Y    0.000000   0.158274   0.000000   0.000000  -0.327809
   39  O  3  Z    0.052512   0.000000  -0.111607   0.127571   0.000000
   40  O  3 XX   -0.013026   0.000000   0.011504   0.020895   0.000000
   41  O  3 YY    0.009489   0.000000  -0.010826  -0.004195   0.000000
   42  O  3 ZZ    0.003538   0.000000  -0.000678  -0.016699   0.000000
   43  O  3 XY    0.000000  -0.026602   0.000000   0.000000   0.017706
   44  O  3 XZ   -0.011797   0.000000   0.016306  -0.013222   0.000000
   45  O  3 YZ    0.000000  -0.010652   0.000000   0.000000   0.007960

                     11         12         13         14         15
                   -0.2916    -0.2111    -0.1339     0.1607     0.2834
                     B1         A1         B2         A1         B1  
    1  N  1  S    0.000000  -0.075949   0.000000  -0.125391   0.000000
    2  N  1  S    0.000000   0.123177   0.000000   0.231737   0.000000
    3  N  1  S    0.000000   0.570195   0.000000   1.762077   0.000000
    4  N  1  X   -0.004583   0.000000   0.000000   0.000000   0.499319
    5  N  1  Y    0.000000   0.000000   0.580680   0.000000   0.000000
    6  N  1  Z    0.000000  -0.420533   0.000000   0.431095   0.000000
    7  N  1  X    0.077726   0.000000   0.000000   0.000000   2.100988
    8  N  1  Y    0.000000   0.000000   0.492890   0.000000   0.000000
    9  N  1  Z    0.000000  -0.251336   0.000000   0.809390   0.000000
   10  N  1 XX    0.000000  -0.044266   0.000000  -0.065635   0.000000
   11  N  1 YY    0.000000   0.017355   0.000000   0.051572   0.000000
   12  N  1 ZZ    0.000000   0.026911   0.000000   0.014063   0.000000
   13  N  1 XY    0.000000   0.000000   0.000000   0.000000   0.000000
   14  N  1 XZ   -0.044564   0.000000   0.000000   0.000000  -0.041415
   15  N  1 YZ    0.000000   0.000000  -0.015988   0.000000   0.000000
   16  O  2  S   -0.004060   0.016661   0.000000   0.075693  -0.089843
   17  O  2  S    0.006894  -0.053184   0.000000  -0.165130   0.148186
   18  O  2  S    0.053215  -0.085457   0.000000  -0.799121   1.410717
   19  O  2  X    0.283340  -0.052869   0.000000  -0.400326   0.105975
   20  O  2  Y    0.000000   0.000000  -0.402927   0.000000   0.000000
   21  O  2  Z    0.413357   0.416216   0.000000   0.005595  -0.214012
   22  O  2  X    0.198026  -0.038159   0.000000  -0.697416   0.653331
   23  O  2  Y    0.000000   0.000000  -0.368033   0.000000   0.000000
   24  O  2  Z    0.264219   0.330901   0.000000   0.037856  -0.535211
   25  O  2 XX    0.013180  -0.004213   0.000000   0.021812   0.004625
   26  O  2 YY   -0.000179   0.001336   0.000000  -0.000623   0.006348
   27  O  2 ZZ   -0.013001   0.002877   0.000000  -0.021189  -0.010973
   28  O  2 XY    0.000000   0.000000   0.008820   0.000000   0.000000
   29  O  2 XZ    0.012376   0.003405   0.000000   0.003215   0.012756
   30  O  2 YZ    0.000000   0.000000  -0.006364   0.000000   0.000000
   31  O  3  S    0.004060   0.016661   0.000000   0.075693   0.089843
   32  O  3  S   -0.006894  -0.053184   0.000000  -0.165130  -0.148186
   33  O  3  S   -0.053215  -0.085457   0.000000  -0.799121  -1.410717
   34  O  3  X    0.283340   0.052869   0.000000   0.400326   0.105975
   35  O  3  Y    0.000000   0.000000  -0.402927   0.000000   0.000000
   36  O  3  Z   -0.413357   0.416216   0.000000   0.005595   0.214012
   37  O  3  X    0.198026   0.038159   0.000000   0.697416   0.653331
   38  O  3  Y    0.000000   0.000000  -0.368033   0.000000   0.000000
   39  O  3  Z   -0.264219   0.330901   0.000000   0.037856   0.535211
   40  O  3 XX   -0.013180  -0.004213   0.000000   0.021812  -0.004625
   41  O  3 YY    0.000179   0.001336   0.000000  -0.000623  -0.006348
   42  O  3 ZZ    0.013001   0.002877   0.000000  -0.021189   0.010973
   43  O  3 XY    0.000000   0.000000  -0.008820   0.000000   0.000000
   44  O  3 XZ    0.012376  -0.003405   0.000000  -0.003215   0.012756
   45  O  3 YZ    0.000000   0.000000  -0.006364   0.000000   0.000000

                     16         17         18         19         20
                    0.4879     0.5080     0.5211     0.6466     0.6850
                     A1         B1         B2         A1         A1  
    1  N  1  S   -0.019533   0.000000   0.000000   0.018595   0.029374
    2  N  1  S    0.001610   0.000000   0.000000  -0.279610  -1.060396
    3  N  1  S    1.163590   0.000000   0.000000   2.153735   1.357185
    4  N  1  X    0.000000  -0.862940   0.000000   0.000000   0.000000
    5  N  1  Y    0.000000   0.000000  -0.813639   0.000000   0.000000
    6  N  1  Z   -0.765889   0.000000   0.000000   0.243133   0.157342
    7  N  1  X    0.000000   1.744733   0.000000   0.000000   0.000000
    8  N  1  Y    0.000000   0.000000   1.149407   0.000000   0.000000
    9  N  1  Z    1.496051   0.000000   0.000000   0.230811  -0.385198
   10  N  1 XX    0.113557   0.000000   0.000000   0.141204   0.008814
   11  N  1 YY   -0.040686   0.000000   0.000000  -0.104227   0.008789
   12  N  1 ZZ   -0.072871   0.000000   0.000000  -0.036977  -0.017603
   13  N  1 XY    0.000000   0.000000   0.000000   0.000000   0.000000
   14  N  1 XZ    0.000000   0.101102   0.000000   0.000000   0.000000
   15  N  1 YZ    0.000000   0.000000  -0.038379   0.000000   0.000000
   16  O  2  S    0.020789  -0.004484   0.000000   0.040989   0.015411
   17  O  2  S    0.028633  -0.048079   0.000000  -0.047518  -0.204190
   18  O  2  S   -0.716460   0.861965   0.000000  -0.724586  -0.062606
   19  O  2  X    0.119190  -0.324796   0.000000   0.532803  -0.122637
   20  O  2  Y    0.000000   0.000000  -0.240290   0.000000   0.000000
   21  O  2  Z   -0.215779   0.067572   0.000000  -0.002366  -0.399115
   22  O  2  X   -0.521840   0.197422   0.000000  -1.159811   0.120851
   23  O  2  Y    0.000000   0.000000  -0.042913   0.000000   0.000000
   24  O  2  Z    0.060033  -0.178149   0.000000   0.285980   0.559665
   25  O  2 XX   -0.065323   0.063702   0.000000  -0.030099  -0.059848
   26  O  2 YY    0.032193  -0.050052   0.000000   0.023220   0.039208
   27  O  2 ZZ    0.033130  -0.013651   0.000000   0.006879   0.020640
   28  O  2 XY    0.000000   0.000000  -0.036241   0.000000   0.000000
   29  O  2 XZ    0.007772  -0.080419   0.000000   0.017395   0.067443
   30  O  2 YZ    0.000000   0.000000   0.013925   0.000000   0.000000
   31  O  3  S    0.020789   0.004484   0.000000   0.040989   0.015411
   32  O  3  S    0.028633   0.048079   0.000000  -0.047518  -0.204190
   33  O  3  S   -0.716460  -0.861965   0.000000  -0.724586  -0.062606
   34  O  3  X   -0.119190  -0.324796   0.000000  -0.532803   0.122637
   35  O  3  Y    0.000000   0.000000  -0.240290   0.000000   0.000000
   36  O  3  Z   -0.215779  -0.067572   0.000000  -0.002366  -0.399115
   37  O  3  X    0.521840   0.197422   0.000000   1.159811  -0.120851
   38  O  3  Y    0.000000   0.000000  -0.042913   0.000000   0.000000
   39  O  3  Z    0.060033   0.178149   0.000000   0.285980   0.559665
   40  O  3 XX   -0.065323  -0.063702   0.000000  -0.030099  -0.059848
   41  O  3 YY    0.032193   0.050052   0.000000   0.023220   0.039208
   42  O  3 ZZ    0.033130   0.013651   0.000000   0.006879   0.020640
   43  O  3 XY    0.000000   0.000000   0.036241   0.000000   0.000000
   44  O  3 XZ   -0.007772  -0.080419   0.000000  -0.017395  -0.067443
   45  O  3 YZ    0.000000   0.000000   0.013925   0.000000   0.000000

                     21         22         23         24         25
                    0.7025     0.7499     0.7805     0.7953     0.8282
                     B1         A2         A1         B2         B1  
    1  N  1  S    0.000000   0.000000  -0.001018   0.000000   0.000000
    2  N  1  S    0.000000   0.000000  -0.953872   0.000000   0.000000
    3  N  1  S    0.000000   0.000000   1.185187   0.000000   0.000000
    4  N  1  X    0.110575   0.000000   0.000000   0.000000  -0.148234
    5  N  1  Y    0.000000   0.000000   0.000000  -0.279387   0.000000
    6  N  1  Z    0.000000   0.000000  -0.172494   0.000000   0.000000
    7  N  1  X    0.232228   0.000000   0.000000   0.000000   0.868222
    8  N  1  Y    0.000000   0.000000   0.000000   1.122786   0.000000
    9  N  1  Z    0.000000   0.000000   0.982296   0.000000   0.000000
   10  N  1 XX    0.000000   0.000000  -0.109223   0.000000   0.000000
   11  N  1 YY    0.000000   0.000000   0.094096   0.000000   0.000000
   12  N  1 ZZ    0.000000   0.000000   0.015127   0.000000   0.000000
   13  N  1 XY    0.000000   0.059889   0.000000   0.000000   0.000000
   14  N  1 XZ    0.114494   0.000000   0.000000   0.000000  -0.145044
   15  N  1 YZ    0.000000   0.000000   0.000000  -0.025299   0.000000
   16  O  2  S   -0.026844   0.000000   0.008595   0.000000   0.001036
   17  O  2  S    0.062976   0.000000  -0.159485   0.000000   0.005834
   18  O  2  S    0.252703   0.000000  -0.276324   0.000000   0.331121
   19  O  2  X   -0.321834   0.000000   0.067772   0.000000   0.399591
   20  O  2  Y    0.000000  -0.628421   0.000000   0.576580   0.000000
   21  O  2  Z    0.494429   0.000000   0.395557   0.000000   0.385935
   22  O  2  X    0.679322   0.000000  -0.185407   0.000000  -0.648323
   23  O  2  Y    0.000000   0.803536   0.000000  -1.047612   0.000000
   24  O  2  Z   -0.678288   0.000000  -0.760491   0.000000  -0.689584
   25  O  2 XX   -0.012232   0.000000  -0.053020   0.000000   0.064162
   26  O  2 YY    0.002539   0.000000   0.063404   0.000000  -0.019493
   27  O  2 ZZ    0.009693   0.000000  -0.010384   0.000000  -0.044669
   28  O  2 XY    0.000000  -0.024493   0.000000   0.014410   0.000000
   29  O  2 XZ    0.005016   0.000000   0.071967   0.000000   0.032002
   30  O  2 YZ    0.000000   0.001213   0.000000  -0.028454   0.000000
   31  O  3  S    0.026844   0.000000   0.008595   0.000000  -0.001036
   32  O  3  S   -0.062976   0.000000  -0.159485   0.000000  -0.005834
   33  O  3  S   -0.252703   0.000000  -0.276324   0.000000  -0.331121
   34  O  3  X   -0.321834   0.000000  -0.067772   0.000000   0.399591
   35  O  3  Y    0.000000   0.628421   0.000000   0.576580   0.000000
   36  O  3  Z   -0.494429   0.000000   0.395557   0.000000  -0.385935
   37  O  3  X    0.679322   0.000000   0.185407   0.000000  -0.648323
   38  O  3  Y    0.000000  -0.803536   0.000000  -1.047612   0.000000
   39  O  3  Z    0.678288   0.000000  -0.760491   0.000000   0.689584
   40  O  3 XX    0.012232   0.000000  -0.053020   0.000000  -0.064162
   41  O  3 YY   -0.002539   0.000000   0.063404   0.000000   0.019493
   42  O  3 ZZ   -0.009693   0.000000  -0.010384   0.000000   0.044669
   43  O  3 XY    0.000000  -0.024493   0.000000  -0.014410   0.000000
   44  O  3 XZ    0.005016   0.000000  -0.071967   0.000000   0.032002
   45  O  3 YZ    0.000000  -0.001213   0.000000  -0.028454   0.000000

                     26         27         28         29         30
                    1.4665     1.5186     1.5471     1.7274     1.7721
                     A2         A1         B2         A1         B1  
    1  N  1  S    0.000000  -0.010562   0.000000  -0.020375   0.000000
    2  N  1  S    0.000000  -0.218489   0.000000  -0.620463   0.000000
    3  N  1  S    0.000000   0.985287   0.000000   3.204947   0.000000
    4  N  1  X    0.000000   0.000000   0.000000   0.000000  -0.087913
    5  N  1  Y    0.000000   0.000000  -0.136525   0.000000   0.000000
    6  N  1  Z    0.000000   0.154805   0.000000  -0.053652   0.000000
    7  N  1  X    0.000000   0.000000   0.000000   0.000000   1.570273
    8  N  1  Y    0.000000   0.000000   0.154915   0.000000   0.000000
    9  N  1  Z    0.000000   0.156972   0.000000   0.914529   0.000000
   10  N  1 XX    0.000000   0.211351   0.000000  -0.126726   0.000000
   11  N  1 YY    0.000000   0.532910   0.000000  -0.034115   0.000000
   12  N  1 ZZ    0.000000  -0.744261   0.000000   0.160841   0.000000
   13  N  1 XY    0.681315   0.000000   0.000000   0.000000   0.000000
   14  N  1 XZ    0.000000   0.000000   0.000000   0.000000  -0.145295
   15  N  1 YZ    0.000000   0.000000   0.811794   0.000000   0.000000
   16  O  2  S    0.000000   0.003839   0.000000   0.003399   0.002101
   17  O  2  S    0.000000   0.319423   0.000000   1.150316  -1.151068
   18  O  2  S    0.000000  -0.692883   0.000000  -2.318785   2.161310
   19  O  2  X    0.000000  -0.029145   0.000000   0.039226  -0.153476
   20  O  2  Y    0.129941   0.000000  -0.040750   0.000000   0.000000
   21  O  2  Z    0.000000   0.074427   0.000000  -0.060871   0.033034
   22  O  2  X    0.000000  -0.195240   0.000000  -0.895449   0.605336
   23  O  2  Y    0.074239   0.000000  -0.114863   0.000000   0.000000
   24  O  2  Z    0.000000   0.131305   0.000000   0.194802  -0.436662
   25  O  2 XX    0.000000  -0.148388   0.000000   0.205797   0.022774
   26  O  2 YY    0.000000   0.174079   0.000000   0.038116   0.219793
   27  O  2 ZZ    0.000000  -0.025691   0.000000  -0.243913  -0.242566
   28  O  2 XY   -0.290681   0.000000   0.284889   0.000000   0.000000
   29  O  2 XZ    0.000000  -0.239678   0.000000   0.073936   0.220076
   30  O  2 YZ    0.213255   0.000000   0.131741   0.000000   0.000000
   31  O  3  S    0.000000   0.003839   0.000000   0.003399  -0.002101
   32  O  3  S    0.000000   0.319423   0.000000   1.150316   1.151068
   33  O  3  S    0.000000  -0.692883   0.000000  -2.318785  -2.161310
   34  O  3  X    0.000000   0.029145   0.000000  -0.039226  -0.153476
   35  O  3  Y   -0.129941   0.000000  -0.040750   0.000000   0.000000
   36  O  3  Z    0.000000   0.074427   0.000000  -0.060871  -0.033034
   37  O  3  X    0.000000   0.195240   0.000000   0.895449   0.605336
   38  O  3  Y   -0.074239   0.000000  -0.114863   0.000000   0.000000
   39  O  3  Z    0.000000   0.131305   0.000000   0.194802   0.436662
   40  O  3 XX    0.000000  -0.148388   0.000000   0.205797  -0.022774
   41  O  3 YY    0.000000   0.174079   0.000000   0.038116  -0.219793
   42  O  3 ZZ    0.000000  -0.025691   0.000000  -0.243913   0.242566
   43  O  3 XY   -0.290681   0.000000  -0.284889   0.000000   0.000000
   44  O  3 XZ    0.000000   0.239678   0.000000  -0.073936   0.220076
   45  O  3 YZ   -0.213255   0.000000   0.131741   0.000000   0.000000

                     31         32         33         34         35
                    1.8735     2.0285     2.0338     2.0525     2.0793
                     B1         A2         A1         B1         B2  
    1  N  1  S    0.000000   0.000000  -0.043930   0.000000   0.000000
    2  N  1  S    0.000000   0.000000  -0.615738   0.000000   0.000000
    3  N  1  S    0.000000   0.000000   2.366641   0.000000   0.000000
    4  N  1  X    0.098283   0.000000   0.000000   0.063600   0.000000
    5  N  1  Y    0.000000   0.000000   0.000000   0.000000   0.099294
    6  N  1  Z    0.000000   0.000000   0.099556   0.000000   0.000000
    7  N  1  X    2.100051   0.000000   0.000000   0.275718   0.000000
    8  N  1  Y    0.000000   0.000000   0.000000   0.000000   0.158929
    9  N  1  Z    0.000000   0.000000   0.884786   0.000000   0.000000
   10  N  1 XX    0.000000   0.000000   0.438606   0.000000   0.000000
   11  N  1 YY    0.000000   0.000000  -0.296729   0.000000   0.000000
   12  N  1 ZZ    0.000000   0.000000  -0.141878   0.000000   0.000000
   13  N  1 XY    0.000000  -0.002524   0.000000   0.000000   0.000000
   14  N  1 XZ    0.643199   0.000000   0.000000   0.135606   0.000000
   15  N  1 YZ    0.000000   0.000000   0.000000   0.000000  -0.193886
   16  O  2  S   -0.030750   0.000000   0.024801  -0.007333   0.000000
   17  O  2  S   -0.591326   0.000000   0.376707   0.055577   0.000000
   18  O  2  S    2.055754   0.000000  -1.417912   0.133830   0.000000
   19  O  2  X    0.303260   0.000000  -0.162322   0.114701   0.000000
   20  O  2  Y    0.000000  -0.023814   0.000000   0.000000   0.054808
   21  O  2  Z    0.026646   0.000000   0.153600   0.024363   0.000000
   22  O  2  X    0.307317   0.000000  -0.549723  -0.067604   0.000000
   23  O  2  Y    0.000000   0.031328   0.000000   0.000000  -0.115313
   24  O  2  Z   -0.501228   0.000000  -0.036807  -0.100349   0.000000
   25  O  2 XX   -0.266137   0.000000  -0.000972  -0.240848   0.000000
   26  O  2 YY   -0.116075   0.000000  -0.503249   0.554955   0.000000
   27  O  2 ZZ    0.382212   0.000000   0.504221  -0.314107   0.000000
   28  O  2 XY    0.000000   0.392731   0.000000   0.000000  -0.036407
   29  O  2 XZ   -0.070394   0.000000  -0.008155  -0.421701   0.000000
   30  O  2 YZ    0.000000   0.588412   0.000000   0.000000   0.700330
   31  O  3  S    0.030750   0.000000   0.024801   0.007333   0.000000
   32  O  3  S    0.591326   0.000000   0.376707  -0.055577   0.000000
   33  O  3  S   -2.055754   0.000000  -1.417912  -0.133830   0.000000
   34  O  3  X    0.303260   0.000000   0.162322   0.114701   0.000000
   35  O  3  Y    0.000000   0.023814   0.000000   0.000000   0.054808
   36  O  3  Z   -0.026646   0.000000   0.153600  -0.024363   0.000000
   37  O  3  X    0.307317   0.000000   0.549723  -0.067604   0.000000
   38  O  3  Y    0.000000  -0.031328   0.000000   0.000000  -0.115313
   39  O  3  Z    0.501228   0.000000  -0.036807   0.100349   0.000000
   40  O  3 XX    0.266137   0.000000  -0.000972   0.240848   0.000000
   41  O  3 YY    0.116075   0.000000  -0.503249  -0.554955   0.000000
   42  O  3 ZZ   -0.382212   0.000000   0.504221   0.314107   0.000000
   43  O  3 XY    0.000000   0.392731   0.000000   0.000000   0.036407
   44  O  3 XZ   -0.070394   0.000000   0.008155  -0.421701   0.000000
   45  O  3 YZ    0.000000  -0.588412   0.000000   0.000000   0.700330

                     36         37         38         39         40
                    2.3120     2.5236     2.7358     2.8164     2.9017
                     A1         B2         B1         A1         A2  
    1  N  1  S   -0.039300   0.000000   0.000000  -0.044637   0.000000
    2  N  1  S   -0.527342   0.000000   0.000000   0.334562   0.000000
    3  N  1  S    1.333580   0.000000   0.000000   2.110146   0.000000
    4  N  1  X    0.000000   0.000000   0.419079   0.000000   0.000000
    5  N  1  Y    0.000000  -0.160111   0.000000   0.000000   0.000000
    6  N  1  Z    0.032746   0.000000   0.000000   0.420804   0.000000
    7  N  1  X    0.000000   0.000000   0.557825   0.000000   0.000000
    8  N  1  Y    0.000000  -0.474005   0.000000   0.000000   0.000000
    9  N  1  Z    0.621778   0.000000   0.000000   0.822894   0.000000
   10  N  1 XX    0.535903   0.000000   0.000000  -0.147128   0.000000
   11  N  1 YY   -0.822350   0.000000   0.000000  -0.281941   0.000000
   12  N  1 ZZ    0.286447   0.000000   0.000000   0.429069   0.000000
   13  N  1 XY    0.000000   0.000000   0.000000   0.000000   0.966375
   14  N  1 XZ    0.000000   0.000000  -0.687574   0.000000   0.000000
   15  N  1 YZ    0.000000  -0.639856   0.000000   0.000000   0.000000
   16  O  2  S    0.022556   0.000000  -0.007676   0.031850   0.000000
   17  O  2  S   -0.048497   0.000000  -0.604639   0.615754   0.000000
   18  O  2  S   -0.633702   0.000000   1.003961  -1.604482   0.000000
   19  O  2  X   -0.239198   0.000000  -0.177096  -0.028387   0.000000
   20  O  2  Y    0.000000  -0.035730   0.000000   0.000000   0.057621
   21  O  2  Z    0.149444   0.000000   0.062467  -0.005269   0.000000
   22  O  2  X   -0.199989   0.000000   0.398008  -0.852662   0.000000
   23  O  2  Y    0.000000   0.319917   0.000000   0.000000   0.201297
   24  O  2  Z   -0.128541   0.000000  -0.388272   0.075434   0.000000
   25  O  2 XX   -0.078601   0.000000  -0.049393  -0.780408   0.000000
   26  O  2 YY    0.283959   0.000000  -0.264962   0.344061   0.000000
   27  O  2 ZZ   -0.205358   0.000000   0.314355   0.436348   0.000000
   28  O  2 XY    0.000000   0.708427   0.000000   0.000000   0.606693
   29  O  2 XZ   -0.375448   0.000000  -0.529810   0.059357   0.000000
   30  O  2 YZ    0.000000  -0.048208   0.000000   0.000000  -0.378479
   31  O  3  S    0.022556   0.000000   0.007676   0.031850   0.000000
   32  O  3  S   -0.048497   0.000000   0.604639   0.615754   0.000000
   33  O  3  S   -0.633702   0.000000  -1.003961  -1.604482   0.000000
   34  O  3  X    0.239198   0.000000  -0.177096   0.028387   0.000000
   35  O  3  Y    0.000000  -0.035730   0.000000   0.000000  -0.057621
   36  O  3  Z    0.149444   0.000000  -0.062467  -0.005269   0.000000
   37  O  3  X    0.199989   0.000000   0.398008   0.852662   0.000000
   38  O  3  Y    0.000000   0.319917   0.000000   0.000000  -0.201297
   39  O  3  Z   -0.128541   0.000000   0.388272   0.075434   0.000000
   40  O  3 XX   -0.078601   0.000000   0.049393  -0.780408   0.000000
   41  O  3 YY    0.283959   0.000000   0.264962   0.344061   0.000000
   42  O  3 ZZ   -0.205358   0.000000  -0.314355   0.436348   0.000000
   43  O  3 XY    0.000000  -0.708427   0.000000   0.000000   0.606693
   44  O  3 XZ    0.375448   0.000000  -0.529810  -0.059357   0.000000
   45  O  3 YZ    0.000000  -0.048208   0.000000   0.000000   0.378479

                     41         42
                    2.9526     3.1775
                     B1         A1  
    1  N  1  S    0.000000  -0.072394
    2  N  1  S    0.000000   0.332424
    3  N  1  S    0.000000   2.040451
    4  N  1  X    0.885018   0.000000
    5  N  1  Y    0.000000   0.000000
    6  N  1  Z    0.000000   0.282695
    7  N  1  X    0.895408   0.000000
    8  N  1  Y    0.000000   0.000000
    9  N  1  Z    0.000000   0.246329
   10  N  1 XX    0.000000   1.232274
   11  N  1 YY    0.000000  -0.553390
   12  N  1 ZZ    0.000000  -0.678884
   13  N  1 XY    0.000000   0.000000
   14  N  1 XZ    0.883368   0.000000
   15  N  1 YZ    0.000000   0.000000
   16  O  2  S   -0.045203   0.049141
   17  O  2  S   -0.348021   0.184853
   18  O  2  S    1.403018  -1.303966
   19  O  2  X    0.244498  -0.310522
   20  O  2  Y    0.000000   0.000000
   21  O  2  Z   -0.074191   0.207216
   22  O  2  X    0.631575  -0.581061
   23  O  2  Y    0.000000   0.000000
   24  O  2  Z   -0.244904   0.376110
   25  O  2 XX    0.783294  -0.194022
   26  O  2 YY   -0.357864   0.335962
   27  O  2 ZZ   -0.425430  -0.141940
   28  O  2 XY    0.000000   0.000000
   29  O  2 XZ   -0.316706   0.752898
   30  O  2 YZ    0.000000   0.000000
   31  O  3  S    0.045203   0.049141
   32  O  3  S    0.348021   0.184853
   33  O  3  S   -1.403018  -1.303966
   34  O  3  X    0.244498   0.310522
   35  O  3  Y    0.000000   0.000000
   36  O  3  Z    0.074191   0.207216
   37  O  3  X    0.631575   0.581061
   38  O  3  Y    0.000000   0.000000
   39  O  3  Z    0.244904   0.376110
   40  O  3 XX   -0.783294  -0.194022
   41  O  3 YY    0.357864   0.335962
   42  O  3 ZZ    0.425430  -0.141940
   43  O  3 XY    0.000000   0.000000
   44  O  3 XZ   -0.316706  -0.752898
   45  O  3 YZ    0.000000   0.000000
 ...... END OF ROHF CALCULATION ......
 STEP CPU TIME =     4.65 TOTAL CPU TIME =        4.8 (    0.1 MIN)
 TOTAL WALL CLOCK TIME=        4.8 SECONDS, CPU UTILIZATION IS  99.79%

     ---------------------------------------------------------------------
     PROPERTIES FOR THE PBE      DFT FUNCTIONAL (ROHF TYPE) DENSITY MATRIX
     ---------------------------------------------------------------------

          -----------------
          ENERGY COMPONENTS
          -----------------

         WAVEFUNCTION NORMALIZATION =       1.0000000000

                ONE ELECTRON ENERGY =    -408.3897750672
                TWO ELECTRON ENERGY =     138.6970940445
           NUCLEAR REPULSION ENERGY =      64.8367196565
                                      ------------------
                       TOTAL ENERGY =    -204.8559613662

 ELECTRON-ELECTRON POTENTIAL ENERGY =     138.6970940445
  NUCLEUS-ELECTRON POTENTIAL ENERGY =    -612.8672115905
   NUCLEUS-NUCLEUS POTENTIAL ENERGY =      64.8367196565
                                      ------------------
             TOTAL POTENTIAL ENERGY =    -409.3333978895
               TOTAL KINETIC ENERGY =     204.4774365233
                 VIRIAL RATIO (V/T) =       2.0018511815

          ---------------------------------------
          MULLIKEN AND LOWDIN POPULATION ANALYSES
          ---------------------------------------

     ATOMIC MULLIKEN POPULATION IN EACH MOLECULAR ORBITAL

                      1          2          3          4          5

                  2.000000   2.000000   2.000000   2.000000   2.000000

    1             0.002722   0.002599   2.000561   0.809217   0.477639
    2             0.998639   0.998701  -0.000280   0.595391   0.761181
    3             0.998639   0.998701  -0.000280   0.595391   0.761181

                      6          7          8          9         10

                  2.000000   2.000000   2.000000   2.000000   2.000000

    1             0.410072   1.042650   0.334709   1.012017   0.034478
    2             0.794964   0.478675   0.832645   0.493992   0.982761
    3             0.794964   0.478675   0.832645   0.493992   0.982761

                     11         12

                  2.000000   1.000000

    1             0.056797   0.434966
    2             0.971601   0.282517
    3             0.971601   0.282517

          MULLIKEN SPHERICAL HARMONIC POPULATIONS
       ATOM           S       P       D      F      G      H      I    TOTAL
    1 N             1.80    1.65    0.07   0.00   0.00   0.00   0.00    3.53
    2 O             1.93    2.29    0.02   0.00   0.00   0.00   0.00    4.24
    3 O             1.93    2.29    0.02   0.00   0.00   0.00   0.00    4.24

          MULLIKEN SPHERICAL HARMONIC POPULATIONS
       ATOM           S       P       D      F      G      H      I    TOTAL
    1 N             1.63    1.41    0.05   0.00   0.00   0.00   0.00    3.09
    2 O             1.93    2.00    0.02   0.00   0.00   0.00   0.00    3.95
    3 O             1.93    2.00    0.02   0.00   0.00   0.00   0.00    3.95

     ATOMIC SPIN POPULATION (ALPHA MINUS BETA)
       ATOM         MULL.POP.                    LOW.POP.
    1 N             0.434966                     0.411122
    2 O             0.282517                     0.294439
    3 O             0.282517                     0.294439

               ----- POPULATIONS IN EACH AO -----
                             MULLIKEN      LOWDIN
              1  N  1  S      1.99651     1.97843
              2  N  1  S      0.80757     0.49870
              3  N  1  S      0.62508     0.39257
              4  N  1  X      0.78044     0.70008
              5  N  1  Y      0.69212     0.62302
              6  N  1  Z      0.88485     0.83234
              7  N  1  X      0.04966     0.28356
              8  N  1  Y      0.34541     0.38926
              9  N  1  Z      0.31595     0.42480
             10  N  1 XX      0.01764     0.23892
             11  N  1 YY      0.02184     0.14265
             12  N  1 ZZ      0.03448     0.16117
             13  N  1 XY      0.04177     0.06736
             14  N  1 XZ      0.00512     0.08148
             15  N  1 YZ      0.00000     0.00564
             16  O  2  S      1.99796     1.98000
             17  O  2  S      0.83865     0.63713
             18  O  2  S      1.02935     0.52673
             19  O  2  X      0.90640     0.85048
             20  O  2  Y      0.93075     0.88507
             21  O  2  Z      1.01153     0.97187
             22  O  2  X      0.39332     0.48277
             23  O  2  Y      0.52084     0.55864
             24  O  2  Z      0.52827     0.57216
             25  O  2 XX      0.00457     0.20675
             26  O  2 YY      0.00934     0.19392
             27  O  2 ZZ      0.00835     0.19295
             28  O  2 XY      0.00996     0.01163
             29  O  2 XZ      0.00149     0.01788
             30  O  2 YZ      0.00000     0.00203
             31  O  3  S      1.99796     1.98000
             32  O  3  S      0.83865     0.63713
             33  O  3  S      1.02935     0.52673
             34  O  3  X      0.90640     0.85048
             35  O  3  Y      0.93075     0.88507
             36  O  3  Z      1.01153     0.97187
             37  O  3  X      0.39332     0.48277
             38  O  3  Y      0.52084     0.55864
             39  O  3  Z      0.52827     0.57216
             40  O  3 XX      0.00457     0.20675
             41  O  3 YY      0.00934     0.19392
             42  O  3 ZZ      0.00835     0.19295
             43  O  3 XY      0.00996     0.01163
             44  O  3 XZ      0.00149     0.01788
             45  O  3 YZ      0.00000     0.00203

          ----- MULLIKEN ATOMIC OVERLAP POPULATIONS -----
          (OFF-DIAGONAL ELEMENTS NEED TO BE MULTIPLIED BY 2)

             1           2           3

    1    5.9600688
    2    0.3291790   7.9651597
    3    0.3291790  -0.1035520   7.9651597

          TOTAL MULLIKEN AND LOWDIN ATOMIC POPULATIONS
       ATOM         MULL.POP.    CHARGE          LOW.POP.     CHARGE
    1 N             6.618427    0.381573         6.819974    0.180026
    2 O             8.190787   -0.190787         8.090013   -0.090013
    3 O             8.190787   -0.190787         8.090013   -0.090013

          MULLIKEN SPHERICAL HARMONIC POPULATIONS
       ATOM           S       P       D      F      G      H      I    TOTAL
    1 N             3.43    3.07    0.12   0.00   0.00   0.00   0.00    6.62
    2 O             3.87    4.29    0.03   0.00   0.00   0.00   0.00    8.19
    3 O             3.87    4.29    0.03   0.00   0.00   0.00   0.00    8.19

          -------------------------------
          BOND ORDER AND VALENCE ANALYSIS     BOND ORDER THRESHOLD=0.050
          -------------------------------

                   BOND                       BOND                       BOND
  ATOM PAIR DIST  ORDER      ATOM PAIR DIST  ORDER      ATOM PAIR DIST  ORDER
    1   2  1.200  1.757        1   3  1.200  1.757        2   3  2.193  0.378

                       TOTAL       BONDED        FREE
      ATOM            VALENCE     VALENCE     VALENCE
    1 N                 3.703       3.514       0.189
    2 O                 2.215       2.136       0.080
    3 O                 2.215       2.136       0.080

          -----------------------------------------
          ATOMIC SPIN DENSITY AT THE NUCLEUS (A.U.)
          -----------------------------------------
                            SPIN DENS    ALPHA DENS     BETA DENS
    1  N            7.0     0.4867690      93.37155      92.88478
    2  O            8.0     0.0436170     141.69658     141.65296
    3  O            8.0     0.0436170     141.69658     141.65296

          ---------------------
          ELECTROSTATIC MOMENTS
          ---------------------

 POINT   1           X           Y           Z (BOHR)    CHARGE
                 0.000000    0.000000    0.000000        0.00 (A.U.)
         DX          DY          DZ         /D/  (DEBYE)
     0.000000    0.000000   -0.308876    0.308876
 ...... END OF PROPERTY EVALUATION ......
 STEP CPU TIME =     0.04 TOTAL CPU TIME =        4.8 (    0.1 MIN)
 TOTAL WALL CLOCK TIME=        4.8 SECONDS, CPU UTILIZATION IS  99.79%

 BEGINNING ONE ELECTRON GRADIENT...
 ..... END OF 1-ELECTRON GRADIENT ......
 STEP CPU TIME =     0.00 TOTAL CPU TIME =        4.8 (    0.1 MIN)
 TOTAL WALL CLOCK TIME=        4.8 SECONDS, CPU UTILIZATION IS  99.79%

          ----------------------
          GRADIENT OF THE ENERGY
          ----------------------
 MEMORY FOR GRID POINT CONTRIBUTIONS TO THE DFT GRADIENT=    144181 WORDS.
 STEP CPU TIME =     0.91 TOTAL CPU TIME =        5.7 (    0.1 MIN)
 TOTAL WALL CLOCK TIME=        5.7 SECONDS, CPU UTILIZATION IS  99.82%

 THE MINIMUM MEMORY REQUIRED FOR THIS RUN IS      88709 WORDS.
 USING     991065 WORDS FOR 2E- DERIVATIVE INTEGRAL CONTRIBUTIONS.
 THE COARSE/FINE SCHWARZ SCREENINGS SKIPPED            0/           0 BLOCKS.
 THE NUMBER OF GRADIENT INTEGRAL BLOCKS COMPUTED WAS      7066
 ...... END OF 2-ELECTRON GRADIENT ......
 STEP CPU TIME =     0.15 TOTAL CPU TIME =        5.9 (    0.1 MIN)
 TOTAL WALL CLOCK TIME=        5.9 SECONDS, CPU UTILIZATION IS  99.83%

          NSERCH=  0     ENERGY=    -204.8559614

                                 -----------------------
                                 GRADIENT (HARTREE/BOHR)
                                 -----------------------
        ATOM     ZNUC       DE/DX         DE/DY         DE/DZ
 --------------------------------------------------------------
    1  N            7.0     0.0000000     0.0000000     0.0050067
    2  O            8.0     0.0207253     0.0000000    -0.0025034
    3  O            8.0    -0.0207253     0.0000000    -0.0025034

          MAXIMUM GRADIENT = 0.0207253    RMS GRADIENT = 0.0099815

 NSERCH:   0  E=     -204.8559613662  GRAD. MAX=  0.0207253  R.M.S.=  0.0099815

          FORCE CONSTANT MATRIX NOT UPDATED --- TAKING FIRST STEP
          MIN SEARCH, CORRECT HESSIAN, TRYING PURE NR STEP
               NR STEP HAS LENGTH         =   0.245388
          RADIUS OF STEP TAKEN=   0.24539  CURRENT TRUST RADIUS=   0.30000

 THE DETERMINANT OF THE G MATRIX IS 10**(    -4)
 * * * WARNING * * *
 YOUR B MATRIX HAS A SMALL DETERMINANT.
 THIS SUGGESTS YOU MAY HAVE BADLY CHOSEN COORDINATES.

 BEGINNING GEOMETRY SEARCH POINT NSERCH=   1 ...

 COORDINATES OF SYMMETRY UNIQUE ATOMS (ANGS)
   ATOM   CHARGE       X              Y              Z
 ------------------------------------------------------------
 N           7.0   0.0000000000   0.0000000000  -0.2597365015
 O           8.0   1.1567654400   0.0000000000   0.1087305232
 COORDINATES OF ALL ATOMS ARE (ANGS)
   ATOM   CHARGE       X              Y              Z
 ------------------------------------------------------------
 N           7.0   0.0000000000   0.0000000000  -0.2597365015
 O           8.0  -1.1567654400   0.0000000000   0.1087305232
 O           8.0   1.1567654400   0.0000000000   0.1087305232

 THE CURRENT FULLY SUBSTITUTED Z-MATRIX IS
 N   
 O      1   1.2140322
 O      1   1.2140322  2   144.6632970

          INTERNUCLEAR DISTANCES (ANGS.)
          ------------------------------

                1 N          2 O          3 O     

   1 N       0.0000000    1.2140322 *  1.2140322 *
   2 O       1.2140322 *  0.0000000    2.3135309 *
   3 O       1.2140322 *  2.3135309 *  0.0000000  

  * ... LESS THAN  3.000

 ...... END OF ONE-ELECTRON INTEGRALS ......
 STEP CPU TIME =     0.00 TOTAL CPU TIME =        5.9 (    0.1 MIN)
 TOTAL WALL CLOCK TIME=        5.9 SECONDS, CPU UTILIZATION IS  99.83%
 TOTAL NUMBER OF NONZERO TWO-ELECTRON INTEGRALS =              125483
          9 INTEGRAL RECORDS WERE STORED ON DISK FILE  8.
  ...... END OF TWO-ELECTRON INTEGRALS .....
 STEP CPU TIME =     0.05 TOTAL CPU TIME =        5.9 (    0.1 MIN)
 TOTAL WALL CLOCK TIME=        5.9 SECONDS, CPU UTILIZATION IS 100.00%

          ---------------------------
               RO-PBE SCF CALCULATION
          ---------------------------
         DENSITY MATRIX CONVERGENCE THRESHOLD=  5.00E-05
     COARSE -> FINE DFT GRID SWITCH THRESHOLD=  1.50E-03 (SWITCH IN $DFT)
                   HF -> DFT SWITCH THRESHOLD=  5.00E-03 (SWOFF IN $DFT)

 DFT CODE IS SWITCHING FROM THE FINE GRID NRAD= 96,  NLEB=  302
                      TO THE COARSE GRID NRAD0= 24, NLEB0=  110

 ITER EX      TOTAL ENERGY        E CHANGE  DENSITY CHANGE    DIIS ERROR
          * * *   INITIATING DIIS PROCEDURE   * * *
   1  0     -204.8321022844  -204.8321022844   0.067954270   0.059563366
   2  1     -204.8479524592    -0.0158501747   0.049355310   0.022914851
   3  2     -204.8444457769     0.0035066823   0.035491233   0.048604523
   4  3     -204.8489400687    -0.0044942918   0.003786334   0.005018547
   5  4     -204.8489952754    -0.0000552067   0.000555161   0.000780950
 DFT CODE IS SWITCHING BACK TO THE FINE GRID
          * * *   INITIATING DIIS PROCEDURE   * * *
   6  5     -204.8506046143    -0.0016093389   0.002051210   0.001360496
   7  6     -204.8506074789    -0.0000028647   0.000793140   0.000915117
   8  7     -204.8506072723     0.0000002066   0.000733722   0.000883003
   9  8     -204.8506085203    -0.0000012479   0.000235335   0.000348046
  10  9     -204.8506087120    -0.0000001917   0.000017651   0.000009401
  11 10     -204.8506087122    -0.0000000002   0.000000873   0.000001318
  12 11     -204.8506087123     0.0000000000   0.000000130   0.000000298

          -----------------
          DENSITY CONVERGED
          -----------------
     TIME TO FORM FOCK OPERATORS=       4.4 SECONDS (       0.4 SEC/ITER)
     TIME TO SOLVE SCF EQUATIONS=       0.0 SECONDS (       0.0 SEC/ITER)

 FINAL RO-PBE ENERGY IS     -204.8506087123 AFTER  12 ITERATIONS
 DFT EXCHANGE + CORRELATION ENERGY =       -23.7078769547
 TOTAL ELECTRON NUMBER             =        22.9999995506

          --------------------
          SPIN SZ   =    0.500
          S-SQUARED =    0.750
          --------------------
 ...... END OF ROHF CALCULATION ......
 STEP CPU TIME =     4.45 TOTAL CPU TIME =       10.4 (    0.2 MIN)
 TOTAL WALL CLOCK TIME=       10.4 SECONDS, CPU UTILIZATION IS  99.90%
 ..... END OF 1-ELECTRON GRADIENT ......
 STEP CPU TIME =     0.00 TOTAL CPU TIME =       10.4 (    0.2 MIN)
 TOTAL WALL CLOCK TIME=       10.4 SECONDS, CPU UTILIZATION IS  99.90%
 MEMORY FOR GRID POINT CONTRIBUTIONS TO THE DFT GRADIENT=    144181 WORDS.
 STEP CPU TIME =     0.90 TOTAL CPU TIME =       11.3 (    0.2 MIN)
 TOTAL WALL CLOCK TIME=       11.3 SECONDS, CPU UTILIZATION IS  99.91%
 ...... END OF 2-ELECTRON GRADIENT ......
 STEP CPU TIME =     0.15 TOTAL CPU TIME =       11.4 (    0.2 MIN)
 TOTAL WALL CLOCK TIME=       11.4 SECONDS, CPU UTILIZATION IS  99.91%

          NSERCH=  1     ENERGY=    -204.8506087

                                 -----------------------
                                 GRADIENT (HARTREE/BOHR)
                                 -----------------------
        ATOM     ZNUC       DE/DX         DE/DY         DE/DZ
 --------------------------------------------------------------
    1  N            7.0     0.0000000     0.0000000     0.0434488
    2  O            8.0    -0.0167097     0.0000000    -0.0217244
    3  O            8.0     0.0167097     0.0000000    -0.0217244

          MAXIMUM GRADIENT = 0.0434488    RMS GRADIENT = 0.0194083

 NSERCH:   1  E=     -204.8506087123  GRAD. MAX=  0.0434488  R.M.S.=  0.0194083

          HESSIAN UPDATED USING THE BFGS FORMULA
             ACTUAL ENERGY CHANGE WAS   0.0053526540
          PREDICTED ENERGY CHANGE WAS  -0.0018040505 RATIO= -2.967
          MIN SEARCH, CORRECT HESSIAN, TRYING PURE NR STEP
               NR STEP HAS LENGTH         =   0.204732
          TRIM/QA LAMBDA FOR NON-TS MODES =  -0.18919379
          TRIM/QA STEP HAS LENGTH         =   0.122694
          RADIUS OF STEP TAKEN=   0.12269  CURRENT TRUST RADIUS=   0.12269

 THE DETERMINANT OF THE G MATRIX IS 10**(    -4)
 * * * WARNING * * *
 YOUR B MATRIX HAS A SMALL DETERMINANT.
 THIS SUGGESTS YOU MAY HAVE BADLY CHOSEN COORDINATES.

 BEGINNING GEOMETRY SEARCH POINT NSERCH=   2 ...

 COORDINATES OF SYMMETRY UNIQUE ATOMS (ANGS)
   ATOM   CHARGE       X              Y              Z
 ------------------------------------------------------------
 N           7.0   0.0000000000   0.0000000000  -0.3068355527
 O           8.0   1.1356940690   0.0000000000   0.1322800488
 COORDINATES OF ALL ATOMS ARE (ANGS)
   ATOM   CHARGE       X              Y              Z
 ------------------------------------------------------------
 N           7.0   0.0000000000   0.0000000000  -0.3068355527
 O           8.0  -1.1356940690   0.0000000000   0.1322800488
 O           8.0   1.1356940690   0.0000000000   0.1322800488

 THE CURRENT FULLY SUBSTITUTED Z-MATRIX IS
 N   
 O      1   1.2176303
 O      1   1.2176303  2   137.7220566

          INTERNUCLEAR DISTANCES (ANGS.)
          ------------------------------

                1 N          2 O          3 O     

   1 N       0.0000000    1.2176303 *  1.2176303 *
   2 O       1.2176303 *  0.0000000    2.2713881 *
   3 O       1.2176303 *  2.2713881 *  0.0000000  

  * ... LESS THAN  3.000

 ...... END OF ONE-ELECTRON INTEGRALS ......
 STEP CPU TIME =     0.00 TOTAL CPU TIME =       11.4 (    0.2 MIN)
 TOTAL WALL CLOCK TIME=       11.4 SECONDS, CPU UTILIZATION IS  99.91%
 TOTAL NUMBER OF NONZERO TWO-ELECTRON INTEGRALS =              125864
          9 INTEGRAL RECORDS WERE STORED ON DISK FILE  8.
  ...... END OF TWO-ELECTRON INTEGRALS .....
 STEP CPU TIME =     0.05 TOTAL CPU TIME =       11.4 (    0.2 MIN)
 TOTAL WALL CLOCK TIME=       11.5 SECONDS, CPU UTILIZATION IS 100.00%

          ---------------------------
               RO-PBE SCF CALCULATION
          ---------------------------
         DENSITY MATRIX CONVERGENCE THRESHOLD=  5.00E-05
     COARSE -> FINE DFT GRID SWITCH THRESHOLD=  1.50E-03 (SWITCH IN $DFT)
                   HF -> DFT SWITCH THRESHOLD=  5.00E-03 (SWOFF IN $DFT)

 DFT CODE IS SWITCHING FROM THE FINE GRID NRAD= 96,  NLEB=  302
                      TO THE COARSE GRID NRAD0= 24, NLEB0=  110

 ITER EX      TOTAL ENERGY        E CHANGE  DENSITY CHANGE    DIIS ERROR
          * * *   INITIATING DIIS PROCEDURE   * * *
   1  0     -204.8489907789  -204.8489907789   0.035067009   0.037570502
   2  1     -204.8535559075    -0.0045651286   0.028080350   0.011537001
   3  2     -204.8520227766     0.0015331309   0.021495179   0.029599720
   4  3     -204.8539410219    -0.0019182453   0.001094220   0.001995830
 DFT CODE IS SWITCHING BACK TO THE FINE GRID
          * * *   INITIATING DIIS PROCEDURE   * * *
   5  4     -204.8555692017    -0.0016281798   0.002115145   0.001345467
   6  5     -204.8555728248    -0.0000036232   0.000701417   0.000936728
   7  6     -204.8555736389    -0.0000008141   0.000532424   0.000565648
   8  7     -204.8555737541    -0.0000001152   0.000325428   0.000444180
   9  8     -204.8555741450    -0.0000003909   0.000017441   0.000014070
  10  9     -204.8555741455    -0.0000000005   0.000001085   0.000002604
  11 10     -204.8555741455     0.0000000000   0.000000135   0.000000299

          -----------------
          DENSITY CONVERGED
          -----------------
     TIME TO FORM FOCK OPERATORS=       4.4 SECONDS (       0.4 SEC/ITER)
     TIME TO SOLVE SCF EQUATIONS=       0.0 SECONDS (       0.0 SEC/ITER)

 FINAL RO-PBE ENERGY IS     -204.8555741455 AFTER  11 ITERATIONS
 DFT EXCHANGE + CORRELATION ENERGY =       -23.7049759749
 TOTAL ELECTRON NUMBER             =        22.9999997886

          --------------------
          SPIN SZ   =    0.500
          S-SQUARED =    0.750
          --------------------
 ...... END OF ROHF CALCULATION ......
 STEP CPU TIME =     4.41 TOTAL CPU TIME =       15.9 (    0.3 MIN)
 TOTAL WALL CLOCK TIME=       15.9 SECONDS, CPU UTILIZATION IS 100.00%
 ..... END OF 1-ELECTRON GRADIENT ......
 STEP CPU TIME =     0.00 TOTAL CPU TIME =       15.9 (    0.3 MIN)
 TOTAL WALL CLOCK TIME=       15.9 SECONDS, CPU UTILIZATION IS 100.00%
 MEMORY FOR GRID POINT CONTRIBUTIONS TO THE DFT GRADIENT=    144181 WORDS.
 STEP CPU TIME =     0.90 TOTAL CPU TIME =       16.8 (    0.3 MIN)
 TOTAL WALL CLOCK TIME=       16.8 SECONDS, CPU UTILIZATION IS 100.00%
 ...... END OF 2-ELECTRON GRADIENT ......
 STEP CPU TIME =     0.15 TOTAL CPU TIME =       16.9 (    0.3 MIN)
 TOTAL WALL CLOCK TIME=       16.9 SECONDS, CPU UTILIZATION IS 100.00%

          NSERCH=  2     ENERGY=    -204.8555741

                                 -----------------------
                                 GRADIENT (HARTREE/BOHR)
                                 -----------------------
        ATOM     ZNUC       DE/DX         DE/DY         DE/DZ
 --------------------------------------------------------------
    1  N            7.0     0.0000000     0.0000000     0.0108382
    2  O            8.0    -0.0153210     0.0000000    -0.0054191
    3  O            8.0     0.0153210     0.0000000    -0.0054191

          MAXIMUM GRADIENT = 0.0153210    RMS GRADIENT = 0.0084700

 NSERCH:   2  E=     -204.8555741455  GRAD. MAX=  0.0153210  R.M.S.=  0.0084700

          HESSIAN UPDATED USING THE BFGS FORMULA
             ACTUAL ENERGY CHANGE WAS  -0.0049654332
          PREDICTED ENERGY CHANGE WAS  -0.0049897524 RATIO=  0.995
          MIN SEARCH, CORRECT HESSIAN, TRYING PURE NR STEP
               NR STEP HAS LENGTH         =   0.102046
          RADIUS OF STEP TAKEN=   0.10205  CURRENT TRUST RADIUS=   0.24539

 THE DETERMINANT OF THE G MATRIX IS 10**(    -4)
 * * * WARNING * * *
 YOUR B MATRIX HAS A SMALL DETERMINANT.
 THIS SUGGESTS YOU MAY HAVE BADLY CHOSEN COORDINATES.

 BEGINNING GEOMETRY SEARCH POINT NSERCH=   3 ...

 COORDINATES OF SYMMETRY UNIQUE ATOMS (ANGS)
   ATOM   CHARGE       X              Y              Z
 ------------------------------------------------------------
 N           7.0   0.0000000000   0.0000000000  -0.3339799248
 O           8.0   1.1056039988   0.0000000000   0.1458522348
 COORDINATES OF ALL ATOMS ARE (ANGS)
   ATOM   CHARGE       X              Y              Z
 ------------------------------------------------------------
 N           7.0   0.0000000000   0.0000000000  -0.3339799248
 O           8.0  -1.1056039988   0.0000000000   0.1458522348
 O           8.0   1.1056039988   0.0000000000   0.1458522348

 THE CURRENT FULLY SUBSTITUTED Z-MATRIX IS
 N   
 O      1   1.2052382
 O      1   1.2052382  2   133.0783109

          INTERNUCLEAR DISTANCES (ANGS.)
          ------------------------------

                1 N          2 O          3 O     

   1 N       0.0000000    1.2052382 *  1.2052382 *
   2 O       1.2052382 *  0.0000000    2.2112080 *
   3 O       1.2052382 *  2.2112080 *  0.0000000  

  * ... LESS THAN  3.000

 ...... END OF ONE-ELECTRON INTEGRALS ......
 STEP CPU TIME =     0.00 TOTAL CPU TIME =       16.9 (    0.3 MIN)
 TOTAL WALL CLOCK TIME=       16.9 SECONDS, CPU UTILIZATION IS 100.00%
 TOTAL NUMBER OF NONZERO TWO-ELECTRON INTEGRALS =              126542
          9 INTEGRAL RECORDS WERE STORED ON DISK FILE  8.
  ...... END OF TWO-ELECTRON INTEGRALS .....
 STEP CPU TIME =     0.05 TOTAL CPU TIME =       17.0 (    0.3 MIN)
 TOTAL WALL CLOCK TIME=       17.0 SECONDS, CPU UTILIZATION IS 100.00%

          ---------------------------
               RO-PBE SCF CALCULATION
          ---------------------------
         DENSITY MATRIX CONVERGENCE THRESHOLD=  5.00E-05
     COARSE -> FINE DFT GRID SWITCH THRESHOLD=  1.50E-03 (SWITCH IN $DFT)
                   HF -> DFT SWITCH THRESHOLD=  5.00E-03 (SWOFF IN $DFT)

 DFT CODE IS SWITCHING FROM THE FINE GRID NRAD= 96,  NLEB=  302
                      TO THE COARSE GRID NRAD0= 24, NLEB0=  110

 ITER EX      TOTAL ENERGY        E CHANGE  DENSITY CHANGE    DIIS ERROR
          * * *   INITIATING DIIS PROCEDURE   * * *
   1  0     -204.8525412997  -204.8525412997   0.025346720   0.020964900
   2  1     -204.8546596154    -0.0021183157   0.024065012   0.012407550
   3  2     -204.8539051596     0.0007544558   0.016034828   0.021327643
   4  3     -204.8549355447    -0.0010303851   0.001361004   0.002017530
 DFT CODE IS SWITCHING BACK TO THE FINE GRID
          * * *   INITIATING DIIS PROCEDURE   * * *
   5  4     -204.8564376132    -0.0015020685   0.002370102   0.001400371
   6  5     -204.8564403617    -0.0000027486   0.000776836   0.000739876
   7  6     -204.8564395809     0.0000007808   0.000728628   0.000945641
   8  7     -204.8564412145    -0.0000016336   0.000154231   0.000215051
   9  8     -204.8564413005    -0.0000000860   0.000010760   0.000011802
  10  9     -204.8564413009    -0.0000000003   0.000001163   0.000001666
  11 10     -204.8564413009     0.0000000000   0.000000164   0.000000320

          -----------------
          DENSITY CONVERGED
          -----------------
     TIME TO FORM FOCK OPERATORS=       4.4 SECONDS (       0.4 SEC/ITER)
     TIME TO SOLVE SCF EQUATIONS=       0.0 SECONDS (       0.0 SEC/ITER)

 FINAL RO-PBE ENERGY IS     -204.8564413009 AFTER  11 ITERATIONS
 DFT EXCHANGE + CORRELATION ENERGY =       -23.7300238106
 TOTAL ELECTRON NUMBER             =        23.0000001761

          --------------------
          SPIN SZ   =    0.500
          S-SQUARED =    0.750
          --------------------
 ...... END OF ROHF CALCULATION ......
 STEP CPU TIME =     4.41 TOTAL CPU TIME =       21.4 (    0.4 MIN)
 TOTAL WALL CLOCK TIME=       21.4 SECONDS, CPU UTILIZATION IS  99.95%
 ..... END OF 1-ELECTRON GRADIENT ......
 STEP CPU TIME =     0.01 TOTAL CPU TIME =       21.4 (    0.4 MIN)
 TOTAL WALL CLOCK TIME=       21.4 SECONDS, CPU UTILIZATION IS 100.00%
 MEMORY FOR GRID POINT CONTRIBUTIONS TO THE DFT GRADIENT=    144181 WORDS.
 STEP CPU TIME =     0.90 TOTAL CPU TIME =       22.3 (    0.4 MIN)
 TOTAL WALL CLOCK TIME=       22.3 SECONDS, CPU UTILIZATION IS 100.00%
 ...... END OF 2-ELECTRON GRADIENT ......
 STEP CPU TIME =     0.15 TOTAL CPU TIME =       22.4 (    0.4 MIN)
 TOTAL WALL CLOCK TIME=       22.4 SECONDS, CPU UTILIZATION IS 100.00%

          NSERCH=  3     ENERGY=    -204.8564413

                                 -----------------------
                                 GRADIENT (HARTREE/BOHR)
                                 -----------------------
        ATOM     ZNUC       DE/DX         DE/DY         DE/DZ
 --------------------------------------------------------------
    1  N            7.0     0.0000000     0.0000000     0.0036398
    2  O            8.0     0.0103073     0.0000000    -0.0018199
    3  O            8.0    -0.0103073     0.0000000    -0.0018199

          MAXIMUM GRADIENT = 0.0103073    RMS GRADIENT = 0.0050811

 NSERCH:   3  E=     -204.8564413009  GRAD. MAX=  0.0103073  R.M.S.=  0.0050811

          HESSIAN UPDATED USING THE BFGS FORMULA
             ACTUAL ENERGY CHANGE WAS  -0.0008671554
          PREDICTED ENERGY CHANGE WAS  -0.0012881408 RATIO=  0.673
          MIN SEARCH, CORRECT HESSIAN, TRYING PURE NR STEP
               NR STEP HAS LENGTH         =   0.024190
          RADIUS OF STEP TAKEN=   0.02419  CURRENT TRUST RADIUS=   0.10205

 THE DETERMINANT OF THE G MATRIX IS 10**(    -4)
 * * * WARNING * * *
 YOUR B MATRIX HAS A SMALL DETERMINANT.
 THIS SUGGESTS YOU MAY HAVE BADLY CHOSEN COORDINATES.

 BEGINNING GEOMETRY SEARCH POINT NSERCH=   4 ...

 COORDINATES OF SYMMETRY UNIQUE ATOMS (ANGS)
   ATOM   CHARGE       X              Y              Z
 ------------------------------------------------------------
 N           7.0   0.0000000000   0.0000000000  -0.3330577679
 O           8.0   1.1146201763   0.0000000000   0.1453911564
 COORDINATES OF ALL ATOMS ARE (ANGS)
   ATOM   CHARGE       X              Y              Z
 ------------------------------------------------------------
 N           7.0   0.0000000000   0.0000000000  -0.3330577679
 O           8.0  -1.1146201763   0.0000000000   0.1453911564
 O           8.0   1.1146201763   0.0000000000   0.1453911564

[...]
   19  O  2  X   -0.226685   0.000000  -0.320155  -0.193826   0.000000
   20  O  2  Y    0.000000  -0.314538   0.000000   0.000000   0.492590
   21  O  2  Z    0.098586   0.000000   0.189286  -0.253294   0.000000
   22  O  2  X   -0.103150   0.000000  -0.181360  -0.109176   0.000000
   23  O  2  Y    0.000000  -0.159696   0.000000   0.000000   0.327369
   24  O  2  Z    0.048399   0.000000   0.107796  -0.132027   0.000000
   25  O  2 XX   -0.013378   0.000000  -0.012036  -0.020201   0.000000
   26  O  2 YY    0.009411   0.000000   0.010744   0.003977   0.000000
   27  O  2 ZZ    0.003967   0.000000   0.001292   0.016224   0.000000
   28  O  2 XY    0.000000  -0.026429   0.000000   0.000000   0.017607
   29  O  2 XZ    0.011083   0.000000   0.015837  -0.014064   0.000000
   30  O  2 YZ    0.000000   0.010107   0.000000   0.000000  -0.007494
   31  O  3  S   -0.115786   0.000000   0.077994  -0.011996   0.000000
   32  O  3  S    0.237330   0.000000  -0.160293   0.021214   0.000000
   33  O  3  S    0.394930   0.000000  -0.253333   0.048962   0.000000
   34  O  3  X    0.226685   0.000000  -0.320155   0.193826   0.000000
   35  O  3  Y    0.000000  -0.314538   0.000000   0.000000  -0.492590
   36  O  3  Z    0.098586   0.000000  -0.189286  -0.253294   0.000000
   37  O  3  X    0.103150   0.000000  -0.181360   0.109176   0.000000
   38  O  3  Y    0.000000  -0.159696   0.000000   0.000000  -0.327369
   39  O  3  Z    0.048399   0.000000  -0.107796  -0.132027   0.000000
   40  O  3 XX   -0.013378   0.000000   0.012036  -0.020201   0.000000
   41  O  3 YY    0.009411   0.000000  -0.010744   0.003977   0.000000
   42  O  3 ZZ    0.003967   0.000000  -0.001292   0.016224   0.000000
   43  O  3 XY    0.000000   0.026429   0.000000   0.000000   0.017607
   44  O  3 XZ   -0.011083   0.000000   0.015837   0.014064   0.000000
   45  O  3 YZ    0.000000   0.010107   0.000000   0.000000   0.007494

                     11         12         13         14         15
                   -0.2940    -0.2103    -0.1391     0.1372     0.2796
                     B1         A1         B2         A1         B1  
    1  N  1  S    0.000000   0.076150   0.000000  -0.124398   0.000000
    2  N  1  S    0.000000  -0.124975   0.000000   0.234229   0.000000
    3  N  1  S    0.000000  -0.564463   0.000000   1.639624   0.000000
    4  N  1  X    0.001850   0.000000   0.000000   0.000000  -0.525449
    5  N  1  Y    0.000000   0.000000  -0.579691   0.000000   0.000000
    6  N  1  Z    0.000000   0.421512   0.000000   0.434441   0.000000
    7  N  1  X   -0.075649   0.000000   0.000000   0.000000  -2.054154
    8  N  1  Y    0.000000   0.000000  -0.484960   0.000000   0.000000
    9  N  1  Z    0.000000   0.252601   0.000000   0.742481   0.000000
   10  N  1 XX    0.000000   0.043808   0.000000  -0.066224   0.000000
   11  N  1 YY    0.000000  -0.017546   0.000000   0.049672   0.000000
   12  N  1 ZZ    0.000000  -0.026262   0.000000   0.016552   0.000000
   13  N  1 XY    0.000000   0.000000   0.000000   0.000000   0.000000
   14  N  1 XZ    0.044366   0.000000   0.000000   0.000000   0.041630
   15  N  1 YZ    0.000000   0.000000   0.014912   0.000000   0.000000
   16  O  2  S    0.003656  -0.016488   0.000000   0.072874   0.089936
   17  O  2  S   -0.005830   0.052526   0.000000  -0.162576  -0.150747
   18  O  2  S   -0.050680   0.084846   0.000000  -0.730653  -1.378149
   19  O  2  X   -0.272177   0.062745   0.000000  -0.411018  -0.122087
   20  O  2  Y    0.000000   0.000000   0.403302   0.000000   0.000000
   21  O  2  Z   -0.419275  -0.416241   0.000000  -0.001177   0.212808
   22  O  2  X   -0.190743   0.045894   0.000000  -0.658588  -0.665341
   23  O  2  Y    0.000000   0.000000   0.362778   0.000000   0.000000
   24  O  2  Z   -0.268126  -0.329339   0.000000   0.022978   0.512282
   25  O  2 XX   -0.012481   0.004298   0.000000   0.021260  -0.003024
   26  O  2 YY    0.000157  -0.001268   0.000000  -0.001327  -0.007002
   27  O  2 ZZ    0.012325  -0.003030   0.000000  -0.019933   0.010026
   28  O  2 XY    0.000000   0.000000  -0.008795   0.000000   0.000000
   29  O  2 XZ   -0.012873  -0.002854   0.000000   0.004177  -0.014582
   30  O  2 YZ    0.000000   0.000000   0.005973   0.000000   0.000000
   31  O  3  S   -0.003656  -0.016488   0.000000   0.072874  -0.089936
   32  O  3  S    0.005830   0.052526   0.000000  -0.162576   0.150747
   33  O  3  S    0.050680   0.084846   0.000000  -0.730653   1.378149
   34  O  3  X   -0.272177  -0.062745   0.000000   0.411018  -0.122087
   35  O  3  Y    0.000000   0.000000   0.403302   0.000000   0.000000
   36  O  3  Z    0.419275  -0.416241   0.000000  -0.001177  -0.212808
   37  O  3  X   -0.190743  -0.045894   0.000000   0.658588  -0.665341
   38  O  3  Y    0.000000   0.000000   0.362778   0.000000   0.000000
   39  O  3  Z    0.268126  -0.329339   0.000000   0.022978  -0.512282
   40  O  3 XX    0.012481   0.004298   0.000000   0.021260   0.003024
   41  O  3 YY   -0.000157  -0.001268   0.000000  -0.001327   0.007002
   42  O  3 ZZ   -0.012325  -0.003030   0.000000  -0.019933  -0.010026
   43  O  3 XY    0.000000   0.000000   0.008795   0.000000   0.000000
   44  O  3 XZ   -0.012873   0.002854   0.000000  -0.004177  -0.014582
   45  O  3 YZ    0.000000   0.000000   0.005973   0.000000   0.000000

                     16         17         18         19         20
                    0.4919     0.5003     0.5230     0.6449     0.6867
                     A1         B1         B2         A1         A1  
    1  N  1  S   -0.020915   0.000000   0.000000  -0.014676  -0.029950
    2  N  1  S    0.003507   0.000000   0.000000   0.255622   1.095819
    3  N  1  S    1.127858   0.000000   0.000000  -2.113839  -1.418230
    4  N  1  X    0.000000  -0.845650   0.000000   0.000000   0.000000
    5  N  1  Y    0.000000   0.000000   0.816307   0.000000   0.000000
    6  N  1  Z   -0.765168   0.000000   0.000000  -0.239842  -0.160626
    7  N  1  X    0.000000   1.834461   0.000000   0.000000   0.000000
    8  N  1  Y    0.000000   0.000000  -1.141370   0.000000   0.000000
    9  N  1  Z    1.470574   0.000000   0.000000  -0.241143   0.376557
   10  N  1 XX    0.108726   0.000000   0.000000  -0.142154  -0.003354
   11  N  1 YY   -0.037213   0.000000   0.000000   0.100871  -0.009017
   12  N  1 ZZ   -0.071514   0.000000   0.000000   0.041282   0.012372
   13  N  1 XY    0.000000   0.000000   0.000000   0.000000   0.000000
   14  N  1 XZ    0.000000   0.094757   0.000000   0.000000   0.000000
   15  N  1 YZ    0.000000   0.000000   0.036273   0.000000   0.000000
   16  O  2  S    0.021707  -0.008682   0.000000  -0.042327  -0.015985
   17  O  2  S    0.018403  -0.040967   0.000000   0.053473   0.204347
   18  O  2  S   -0.680444   0.922389   0.000000   0.709161   0.076898
   19  O  2  X    0.109935  -0.327972   0.000000  -0.530867   0.106293
   20  O  2  Y    0.000000   0.000000   0.243081   0.000000   0.000000
   21  O  2  Z   -0.221559   0.066863   0.000000  -0.010025   0.386275
   22  O  2  X   -0.517036   0.248845   0.000000   1.173354  -0.091168
   23  O  2  Y    0.000000   0.000000   0.037199   0.000000   0.000000
   24  O  2  Z    0.059248  -0.209060   0.000000  -0.254925  -0.550035
   25  O  2 XX   -0.062331   0.065957   0.000000   0.028046   0.064209
   26  O  2 YY    0.030635  -0.049051   0.000000  -0.022034  -0.041141
   27  O  2 ZZ    0.031697  -0.016906   0.000000  -0.006012  -0.023068
   28  O  2 XY    0.000000   0.000000   0.035009   0.000000   0.000000
   29  O  2 XZ    0.006452  -0.076258   0.000000  -0.015734  -0.066601
   30  O  2 YZ    0.000000   0.000000  -0.013029   0.000000   0.000000
   31  O  3  S    0.021707   0.008682   0.000000  -0.042327  -0.015985
   32  O  3  S    0.018403   0.040967   0.000000   0.053473   0.204347
   33  O  3  S   -0.680444  -0.922389   0.000000   0.709161   0.076898
   34  O  3  X   -0.109935  -0.327972   0.000000   0.530867  -0.106293
   35  O  3  Y    0.000000   0.000000   0.243081   0.000000   0.000000
   36  O  3  Z   -0.221559  -0.066863   0.000000  -0.010025   0.386275
   37  O  3  X    0.517036   0.248845   0.000000  -1.173354   0.091168
   38  O  3  Y    0.000000   0.000000   0.037199   0.000000   0.000000
   39  O  3  Z    0.059248   0.209060   0.000000  -0.254925  -0.550035
   40  O  3 XX   -0.062331  -0.065957   0.000000   0.028046   0.064209
   41  O  3 YY    0.030635   0.049051   0.000000  -0.022034  -0.041141
   42  O  3 ZZ    0.031697   0.016906   0.000000  -0.006012  -0.023068
   43  O  3 XY    0.000000   0.000000  -0.035009   0.000000   0.000000
   44  O  3 XZ   -0.006452  -0.076258   0.000000   0.015734   0.066601
   45  O  3 YZ    0.000000   0.000000  -0.013029   0.000000   0.000000

                     21         22
                    0.7034     0.7476
                     B1         A2  
    1  N  1  S    0.000000   0.000000
    2  N  1  S    0.000000   0.000000
    3  N  1  S    0.000000   0.000000
    4  N  1  X   -0.125801   0.000000
    5  N  1  Y    0.000000   0.000000
    6  N  1  Z    0.000000   0.000000
    7  N  1  X   -0.219216   0.000000
    8  N  1  Y    0.000000   0.000000
    9  N  1  Z    0.000000   0.000000
   10  N  1 XX    0.000000   0.000000
   11  N  1 YY    0.000000   0.000000
   12  N  1 ZZ    0.000000   0.000000
   13  N  1 XY    0.000000   0.055508
   14  N  1 XZ   -0.104662   0.000000
   15  N  1 YZ    0.000000   0.000000
   16  O  2  S    0.026078   0.000000
   17  O  2  S   -0.065360   0.000000
   18  O  2  S   -0.230767   0.000000
   19  O  2  X    0.307385   0.000000
   20  O  2  Y    0.000000  -0.629768
   21  O  2  Z   -0.505068   0.000000
   22  O  2  X   -0.650000   0.000000
   23  O  2  Y    0.000000   0.798743
   24  O  2  Z    0.688588   0.000000
   25  O  2 XX    0.014331   0.000000
   26  O  2 YY   -0.004724   0.000000
   27  O  2 ZZ   -0.009607   0.000000
   28  O  2 XY    0.000000  -0.022803
   29  O  2 XZ   -0.008390   0.000000
   30  O  2 YZ    0.000000   0.001099
   31  O  3  S   -0.026078   0.000000
   32  O  3  S    0.065360   0.000000
   33  O  3  S    0.230767   0.000000
   34  O  3  X    0.307385   0.000000
   35  O  3  Y    0.000000   0.629768
   36  O  3  Z    0.505068   0.000000
   37  O  3  X   -0.650000   0.000000
   38  O  3  Y    0.000000  -0.798743
   39  O  3  Z   -0.688588   0.000000
   40  O  3 XX   -0.014331   0.000000
   41  O  3 YY    0.004724   0.000000
   42  O  3 ZZ    0.009607   0.000000
   43  O  3 XY    0.000000  -0.022803
   44  O  3 XZ   -0.008390   0.000000
   45  O  3 YZ    0.000000  -0.001099

     ---------------------------------------------------------------------
     PROPERTIES FOR THE PBE      DFT FUNCTIONAL (ROHF TYPE) DENSITY MATRIX
     ---------------------------------------------------------------------

          -----------------
          ENERGY COMPONENTS
          -----------------

         WAVEFUNCTION NORMALIZATION =       1.0000000000

                ONE ELECTRON ENERGY =    -407.0138384340
                TWO ELECTRON ENERGY =     138.0262535897
           NUCLEAR REPULSION ENERGY =      64.1309955930
                                      ------------------
                       TOTAL ENERGY =    -204.8565892513

 ELECTRON-ELECTRON POTENTIAL ENERGY =     138.0262535897
  NUCLEUS-ELECTRON POTENTIAL ENERGY =    -611.4071365501
   NUCLEUS-NUCLEUS POTENTIAL ENERGY =      64.1309955930
                                      ------------------
             TOTAL POTENTIAL ENERGY =    -409.2498873674
               TOTAL KINETIC ENERGY =     204.3932981161
                 VIRIAL RATIO (V/T) =       2.0022666650

          ---------------------------------------
          MULLIKEN AND LOWDIN POPULATION ANALYSES
          ---------------------------------------

     ATOMIC MULLIKEN POPULATION IN EACH MOLECULAR ORBITAL

                      1          2          3          4          5

                  2.000000   2.000000   2.000000   2.000000   2.000000

    1             0.002813   0.002462   2.000551   0.808761   0.464091
    2             0.998594   0.998769  -0.000276   0.595620   0.767955
    3             0.998594   0.998769  -0.000276   0.595620   0.767955

                      6          7          8          9         10

                  2.000000   2.000000   2.000000   2.000000   2.000000

    1             0.417573   1.042235   0.340947   1.016297   0.033367
    2             0.791214   0.478883   0.829527   0.491851   0.983317
    3             0.791214   0.478883   0.829527   0.491851   0.983317

                     11         12

                  2.000000   1.000000

    1             0.054474   0.433608
    2             0.972763   0.283196
    3             0.972763   0.283196

          MULLIKEN SPHERICAL HARMONIC POPULATIONS
       ATOM           S       P       D      F      G      H      I    TOTAL
    1 N             1.80    1.66    0.07   0.00   0.00   0.00   0.00    3.53
    2 O             1.93    2.29    0.02   0.00   0.00   0.00   0.00    4.24
    3 O             1.93    2.29    0.02   0.00   0.00   0.00   0.00    4.24

          MULLIKEN SPHERICAL HARMONIC POPULATIONS
       ATOM           S       P       D      F      G      H      I    TOTAL
    1 N             1.63    1.41    0.05   0.00   0.00   0.00   0.00    3.09
    2 O             1.94    2.00    0.02   0.00   0.00   0.00   0.00    3.95
    3 O             1.94    2.00    0.02   0.00   0.00   0.00   0.00    3.95

     ATOMIC SPIN POPULATION (ALPHA MINUS BETA)
       ATOM         MULL.POP.                    LOW.POP.
    1 N             0.433608                     0.410778
    2 O             0.283196                     0.294611
    3 O             0.283196                     0.294611

               ----- POPULATIONS IN EACH AO -----
                             MULLIKEN      LOWDIN
              1  N  1  S      1.99650     1.97866
              2  N  1  S      0.80854     0.50072
              3  N  1  S      0.62935     0.39416
              4  N  1  X      0.77481     0.69490
              5  N  1  Y      0.68820     0.62047
              6  N  1  Z      0.88132     0.82950
              7  N  1  X      0.04716     0.28471
              8  N  1  Y      0.34935     0.39299
              9  N  1  Z      0.32514     0.42905
             10  N  1 XX      0.01668     0.23815
             11  N  1 YY      0.02172     0.14394
             12  N  1 ZZ      0.03337     0.16063
             13  N  1 XY      0.04036     0.06465
             14  N  1 XZ      0.00469     0.07828
             15  N  1 YZ      0.00000     0.00514
             16  O  2  S      1.99798     1.98008
             17  O  2  S      0.84094     0.63977
             18  O  2  S      1.03357     0.52878
             19  O  2  X      0.89140     0.83556
             20  O  2  Y      0.92963     0.88433
             21  O  2  Z      1.01647     0.97714
             22  O  2  X      0.39107     0.48298
             23  O  2  Y      0.52308     0.56099
             24  O  2  Z      0.53429     0.57704
             25  O  2 XX      0.00442     0.20704
             26  O  2 YY      0.00938     0.19469
             27  O  2 ZZ      0.00816     0.19329
             28  O  2 XY      0.00970     0.01125
             29  O  2 XZ      0.00133     0.01730
             30  O  2 YZ      0.00000     0.00180
             31  O  3  S      1.99798     1.98008
             32  O  3  S      0.84094     0.63977
             33  O  3  S      1.03357     0.52878
             34  O  3  X      0.89140     0.83556
             35  O  3  Y      0.92963     0.88433
             36  O  3  Z      1.01647     0.97714
             37  O  3  X      0.39107     0.48298
             38  O  3  Y      0.52308     0.56099
             39  O  3  Z      0.53429     0.57704
             40  O  3 XX      0.00442     0.20704
             41  O  3 YY      0.00938     0.19469
             42  O  3 ZZ      0.00816     0.19329
             43  O  3 XY      0.00970     0.01125
             44  O  3 XZ      0.00133     0.01730
             45  O  3 YZ      0.00000     0.00180

          ----- MULLIKEN ATOMIC OVERLAP POPULATIONS -----
          (OFF-DIAGONAL ELEMENTS NEED TO BE MULTIPLIED BY 2)

             1           2           3

    1    5.9727936
    2    0.3221921   7.9639156
    3    0.3221921  -0.0946966   7.9639156

          TOTAL MULLIKEN AND LOWDIN ATOMIC POPULATIONS
       ATOM         MULL.POP.    CHARGE          LOW.POP.     CHARGE
    1 N             6.617178    0.382822         6.815967    0.184033
    2 O             8.191411   -0.191411         8.092016   -0.092016
    3 O             8.191411   -0.191411         8.092016   -0.092016

          MULLIKEN SPHERICAL HARMONIC POPULATIONS
       ATOM           S       P       D      F      G      H      I    TOTAL
    1 N             3.43    3.07    0.12   0.00   0.00   0.00   0.00    6.62
    2 O             3.87    4.29    0.03   0.00   0.00   0.00   0.00    8.19
    3 O             3.87    4.29    0.03   0.00   0.00   0.00   0.00    8.19

          -------------------------------
          BOND ORDER AND VALENCE ANALYSIS     BOND ORDER THRESHOLD=0.050
          -------------------------------

                   BOND                       BOND                       BOND
  ATOM PAIR DIST  ORDER      ATOM PAIR DIST  ORDER      ATOM PAIR DIST  ORDER
    1   2  1.211  1.751        1   3  1.211  1.751        2   3  2.228  0.385

                       TOTAL       BONDED        FREE
      ATOM            VALENCE     VALENCE     VALENCE
    1 N                 3.690       3.502       0.188
    2 O                 2.216       2.136       0.080
    3 O                 2.216       2.136       0.080

          -----------------------------------------
          ATOMIC SPIN DENSITY AT THE NUCLEUS (A.U.)
          -----------------------------------------
                            SPIN DENS    ALPHA DENS     BETA DENS
    1  N            7.0     0.4907076      93.37707      92.88636
    2  O            8.0     0.0426772     141.71105     141.66837
    3  O            8.0     0.0426772     141.71105     141.66837

          ---------------------
          ELECTROSTATIC MOMENTS
          ---------------------

 POINT   1           X           Y           Z (BOHR)    CHARGE
                 0.000000    0.000000   -0.000672        0.00 (A.U.)
         DX          DY          DZ         /D/  (DEBYE)
     0.000000    0.000000   -0.272793    0.272793
 ...... END OF PROPERTY EVALUATION ......
 STEP CPU TIME =     0.02 TOTAL CPU TIME =       39.0 (    0.6 MIN)
 TOTAL WALL CLOCK TIME=       39.0 SECONDS, CPU UTILIZATION IS 100.05%
  $VIB   
          IVIB=   0 IATOM=   0 ICOORD=   0 E=     -204.8565892513
  0.000000000E+00 0.000000000E+00-5.380878834E-06 2.887176874E-05 0.000000000E+00
  2.690439417E-06-2.887176874E-05 0.000000000E+00 2.690439417E-06
  2.709050051E-14-1.226269818E-16-2.727933376E-01
 ......END OF GEOMETRY SEARCH......
 STEP CPU TIME =     0.00 TOTAL CPU TIME =       39.0 (    0.6 MIN)
 TOTAL WALL CLOCK TIME=       39.0 SECONDS, CPU UTILIZATION IS 100.05%
               991137  WORDS OF DYNAMIC MEMORY USED
 EXECUTION OF GAMESS TERMINATED NORMALLY Thu Feb 26 01:15:13 2015
 DDI: 263624 bytes (0.3 MB / 0 MWords) used by master data server.

 ----------------------------------------
 CPU timing information for all processes
 ========================================
 0: 38.861 + 0.110 = 38.972
 ----------------------------------------
 ddikick.x: exited gracefully.
----- accounting info -----
Files used on the master node dftfe.crc.nd.edu were:
-rw-r--r-- 1 pmehta1 campus  123426 Feb 26 01:15 /tmp/NO2.dat
-rw-r--r-- 1 pmehta1 campus     256 Feb 26 01:14 /tmp/NO2.F05
-rw-r--r-- 1 pmehta1 campus 1620216 Feb 26 01:15 /tmp/NO2.F08
-rw-r--r-- 1 pmehta1 campus 1668968 Feb 26 01:15 /tmp/NO2.F10
-rw-r--r-- 1 pmehta1 campus 1069440 Feb 26 01:15 /tmp/NO2.F22
Thu Feb 26 01:15:16 EST 2015
0.261u 0.192s 0:42.91 1.0%	0+0k 0+264io 0pf+0w
