----- GAMESS execution script 'rungms' -----
This job is running on host dftfe.crc.nd.edu
under operating system Linux at Thu Feb 26 00:17:49 EST 2015
Available scratch disk space (Kbyte units) at beginning of the job is
Filesystem     1K-blocks     Used Available Use% Mounted on
/dev/sda2      147771864 22814300 117451132  17% /
GAMESS temporary binary files will be written to /tmp
GAMESS supplementary output files will be written to /tmp
Copying input file gamess.inp to your run's scratch directory...

 Distributed Data Interface kickoff program.
 Initiating 1 compute processes on 1 nodes to run the following command:
 /opt/crc/gamess/2012R1/gamess/gamess.00.x gamess 

          ******************************************************
          *         GAMESS VERSION =  1 MAY 2012 (R1)          *
          *             FROM IOWA STATE UNIVERSITY             *
          * M.W.SCHMIDT, K.K.BALDRIDGE, J.A.BOATZ, S.T.ELBERT, *
          *   M.S.GORDON, J.H.JENSEN, S.KOSEKI, N.MATSUNAGA,   *
          *          K.A.NGUYEN, S.J.SU, T.L.WINDUS,           *
          *       TOGETHER WITH M.DUPUIS, J.A.MONTGOMERY       *
          *         J.COMPUT.CHEM.  14, 1347-1363(1993)        *
          **************** 64 BIT LINUX VERSION ****************

  SINCE 1993, STUDENTS AND POSTDOCS WORKING AT IOWA STATE UNIVERSITY
  AND ALSO IN THEIR VARIOUS JOBS AFTER LEAVING ISU HAVE MADE IMPORTANT
  CONTRIBUTIONS TO THE CODE:
     IVANA ADAMOVIC, CHRISTINE AIKENS, YURI ALEXEEV, POOJA ARORA,
     ANDREY ASADCHEV, ROB BELL, PRADIPTA BANDYOPADHYAY, JONATHAN BENTZ,
     BRETT BODE, GALINA CHABAN, WEI CHEN, CHEOL HO CHOI, PAUL DAY,
     ALBERT DEFUSCO, TIM DUDLEY, DMITRI FEDOROV, GRAHAM FLETCHER,
     MARK FREITAG, KURT GLAESEMANN, DAN KEMP, GRANT MERRILL,
     NORIYUKI MINEZAWA, JONATHAN MULLIN, TAKESHI NAGATA,
     SEAN NEDD, HEATHER NETZLOFF, BOSILJKA NJEGIC, RYAN OLSON, MIKE PAK,
     JIM SHOEMAKER, LYUDMILA SLIPCHENKO, SAROM SOK, JIE SONG,
     TETSUYA TAKETSUGU, SIMON WEBB, SOOHAENG YOO, FEDERICO ZAHARIEV

  ADDITIONAL CODE HAS BEEN PROVIDED BY COLLABORATORS IN OTHER GROUPS:
     IOWA STATE UNIVERSITY:
          JOE IVANIC, LAIMUTIS BYTAUTAS, KLAUS RUEDENBERG
     UNIVERSITY OF TOKYO: KIMIHIKO HIRAO, TAKAHITO NAKAJIMA,
          TAKAO TSUNEDA, MUNEAKI KAMIYA, SUSUMU YANAGISAWA,
          KIYOSHI YAGI, MAHITO CHIBA, SEIKEN TOKURA, NAOAKI KAWAKAMI
     UNIVERSITY OF AARHUS: FRANK JENSEN
     UNIVERSITY OF IOWA: VISVALDAS KAIRYS, HUI LI
     NATIONAL INST. OF STANDARDS AND TECHNOLOGY: WALT STEVENS, DAVID GARMER
     UNIVERSITY OF PISA: BENEDETTA MENNUCCI, JACOPO TOMASI
     UNIVERSITY OF MEMPHIS: HENRY KURTZ, PRAKASHAN KORAMBATH
     UNIVERSITY OF ALBERTA: TOBY ZENG, MARIUSZ KLOBUKOWSKI
     UNIVERSITY OF NEW ENGLAND: MARK SPACKMAN
     MIE UNIVERSITY: HIROAKI UMEDA
     MICHIGAN STATE UNIVERSITY:
          KAROL KOWALSKI, MARTA WLOCH, JEFFREY GOUR, JESSE LUTZ, PIOTR PIECUCH
     UNIVERSITY OF SILESIA: MONIKA MUSIAL, STANISLAW KUCHARSKI
     FACULTES UNIVERSITAIRES NOTRE-DAME DE LA PAIX:
          OLIVIER QUINET, BENOIT CHAMPAGNE
     UNIVERSITY OF CALIFORNIA - SANTA BARBARA: BERNARD KIRTMAN
     INSTITUTE FOR MOLECULAR SCIENCE:
          KAZUYA ISHIMURA, MICHIO KATOUDA, AND SHIGERU NAGASE
     UNIVERSITY OF NOTRE DAME: DAN CHIPMAN
     KYUSHU UNIVERSITY:
          HARUYUKI NAKANO,
          FENG LONG GU, JACEK KORCHOWIEC, MARCIN MAKOWSKI, AND YURIKO AOKI,
          HIROTOSHI MORI AND EISAKU MIYOSHI
     PENNSYLVANIA STATE UNIVERSITY:
          TZVETELIN IORDANOV, CHET SWALINA, JONATHAN SKONE,
          SHARON HAMMES-SCHIFFER
     WASEDA UNIVERSITY:
          MASATO KOBAYASHI, TOMOKO AKAMA, TSUGUKI TOUMA,
          TAKESHI YOSHIKAWA, YASUHIRO IKABATA, HIROMI NAKAI
     UNIVERSITY OF NEBRASKA:
          PEIFENG SU, DEJUN SI, NANDUN THELLAMUREGE, YALI WANG, HUI LI
     UNIVERSITY OF ZURICH:
          ROBERTO PEVERATI, KIM BALDRIDGE
     N. COPERNICUS UNIVERSITY AND JACKSON STATE UNIVERSITY:
          MARIA BARYSZ

 EXECUTION OF GAMESS BEGUN Thu Feb 26 00:17:49 2015

            ECHO OF THE FIRST FEW INPUT CARDS -
 INPUT CARD> $BASIS GBASIS=PC1 $END                                                         
 INPUT CARD> $CONTRL COORD=ZMT ISPHER=1 RUNTYP=ENERGY DFTTYP=PBE $END                       
 INPUT CARD>                                                                                
 INPUT CARD> $DATA                                                                          
 INPUT CARD>Title                                                                           
 INPUT CARD>Cnv 2                                                                           
 INPUT CARD>                                                                                
 INPUT CARD>S                                                                               
 INPUT CARD>O 1 1.60                                                                        
 INPUT CARD>O 1 1.60 2 100.0                                                                
 INPUT CARD> $END                                                                           
    1000000 WORDS OF MEMORY AVAILABLE

     BASIS OPTIONS
     -------------
     GBASIS=PC1          IGAUSS=       0      POLAR=NONE    
     NDFUNC=       0     NFFUNC=       0     DIFFSP=       F
     NPFUNC=       0      DIFFS=       F     BASNAM=        


     RUN TITLE
     ---------
 Title                                                                           

 THE POINT GROUP OF THE MOLECULE IS CNV     
 THE ORDER OF THE PRINCIPAL AXIS IS     2

 YOUR FULLY SUBSTITUTED Z-MATRIX IS
 S   
 O      1   1.6000000
 O      1   1.6000000  2  100.0000

 THE MOMENTS OF INERTIA ARE (AMU-ANGSTROM**2)
 IXX=    16.914   IYY=    48.057   IZZ=    64.971

 ATOM      ATOMIC                      COORDINATES (BOHR)
           CHARGE         X                   Y                   Z
 S          16.0     0.0000000000        0.0000000000       -0.9720236310
 O           8.0    -2.3161825471        0.0000000000        0.9714842900
 O           8.0     2.3161825471        0.0000000000        0.9714842900

          INTERNUCLEAR DISTANCES (ANGS.)
          ------------------------------

                1 S          2 O          3 O     

   1 S       0.0000000    1.6000000 *  1.6000000 *
   2 O       1.6000000 *  0.0000000    2.4513422 *
   3 O       1.6000000 *  2.4513422 *  0.0000000  

  * ... LESS THAN  3.000


     ATOMIC BASIS SET
     ----------------
 THE CONTRACTED PRIMITIVE FUNCTIONS HAVE BEEN UNNORMALIZED
 THE CONTRACTED BASIS FUNCTIONS ARE NOW NORMALIZED TO UNITY

  SHELL TYPE  PRIMITIVE        EXPONENT          CONTRACTION COEFFICIENT(S)

 S         

      1   S       1         55510.0000000    0.000587229760
      1   S       2          8326.7000000    0.004532413947
      1   S       3          1895.6000000    0.023265261648
      1   S       4           536.7700000    0.089696133027
      1   S       5           174.6700000    0.254098332277
      1   S       6            62.5780000    0.438665087637
      1   S       7            23.5730000    0.314547135094
      1   S       8             5.8908000    0.032727897102

      2   S       9          8326.7000000   -0.000019755715
      2   S      10          1895.6000000   -0.000043822381
      2   S      11           536.7700000   -0.001730264906
      2   S      12           174.6700000   -0.009381263460
      2   S      13            62.5780000   -0.064050766303
      2   S      14            23.5730000   -0.082478179196
      2   S      15             5.8908000    0.478342956889
      2   S      16             2.1852000    0.626896670208

      3   S      17          1895.6000000    0.000016227260
      3   S      18           536.7700000    0.000191135619
      3   S      19           174.6700000    0.001952069674
      3   S      20            62.5780000    0.010578701087
      3   S      21            23.5730000    0.022164934551
      3   S      22             5.8908000   -0.184968323118
      3   S      23             2.1852000   -0.480920750976
      3   S      24             0.4528200    1.243822243872

      4   S      25             0.1620200    1.000000000000

      5   P      26           395.4500000    0.004642761329
      5   P      27            92.8340000    0.036023396489
      5   P      28            29.2660000    0.149058869978
      5   P      29            10.5950000    0.360033266263
      5   P      30             4.0272000    0.455756476221
      5   P      31             1.5484000    0.206167664178

      6   P      32            92.8340000    0.000169901442
      6   P      33            29.2660000   -0.002541839934
      6   P      34            10.5950000   -0.007867614595
      6   P      35             4.0272000   -0.037231009184
      6   P      36             1.5484000    0.161417246830
      6   P      37             0.4613400    0.902230419976

      7   P      38             0.1313100    1.000000000000

      8   D      39             0.5500000    1.000000000000

 O         

     15   S      40          2306.7000000    0.005424388755
     15   S      41           347.1500000    0.040474749465
     15   S      42            78.8900000    0.180219634554
     15   S      43            21.8760000    0.462370311787
     15   S      44             6.6646000    0.454888396263

     16   S      45           347.1500000   -0.000655003786
     16   S      46            78.8900000   -0.005362052952
     16   S      47            21.8760000   -0.074902158894
     16   S      48             6.6646000   -0.181442579655
     16   S      49             1.0669000    1.102006874042

     17   S      50             0.3070000    1.000000000000

     18   P      51            17.0220000    0.068979967443
     18   P      52             3.6838000    0.351985516325
     18   P      53             0.9923400    0.724036547822

     19   P      54             0.2448700    1.000000000000

     20   D      55             1.0000000    1.000000000000

 TOTAL NUMBER OF BASIS SET SHELLS             =   20
 NUMBER OF CARTESIAN GAUSSIAN BASIS FUNCTIONS =   49
 NOTE: THIS RUN WILL RESTRICT THE MO VARIATION SPACE TO SPHERICAL HARMONICS.
 THE NUMBER OF ORBITALS KEPT IN THE VARIATIONAL SPACE WILL BE PRINTED LATER.
 NUMBER OF ELECTRONS                          =   32
 CHARGE OF MOLECULE                           =    0
 SPIN MULTIPLICITY                            =    1
 NUMBER OF OCCUPIED ORBITALS (ALPHA)          =   16
 NUMBER OF OCCUPIED ORBITALS (BETA )          =   16
 TOTAL NUMBER OF ATOMS                        =    3
 THE NUCLEAR REPULSION ENERGY IS       98.4841966485

     LEBEDEV GRID-BASED DFT OPTIONS
     ------------------------------
     DFTTYP=PBE     
     NRAD  =      96     NLEB  =     302
     NRAD0 =      24     NLEB0 =     110
     SWOFF =    5.00E-03 (PURE SCF -> DFT)
     SWITCH=    3.00E-04 (COARSE -> TIGHT GRID)
     THRESH=    0.00E+00 GTHRE=    1.00E+00

 GRIMME'S EMPIRICAL DISPERSION CORRECTION= F

     $CONTRL OPTIONS
     ---------------
 SCFTYP=RHF          RUNTYP=ENERGY       EXETYP=RUN     
 MPLEVL=       0     CITYP =NONE         CCTYP =NONE         VBTYP =NONE    
 DFTTYP=PBE          TDDFT =NONE    
 MULT  =       1     ICHARG=       0     NZVAR =       0     COORD =ZMT     
 PP    =NONE         RELWFN=NONE         LOCAL =NONE         NUMGRD=       F
 ISPHER=       1     NOSYM =       0     MAXIT =      30     UNITS =ANGS    
 PLTORB=       F     MOLPLT=       F     AIMPAC=       F     FRIEND=        
 NPRINT=       7     IREST =       0     GEOM  =INPUT   
 NORMF =       0     NORMP =       0     ITOL  =      20     ICUT  =       9
 INTTYP=BEST         GRDTYP=BEST         QMTTOL= 1.0E-06

     $SYSTEM OPTIONS
     ---------------
  REPLICATED MEMORY=     1000000 WORDS (ON EVERY NODE).
 DISTRIBUTED MEMDDI=           0 MILLION WORDS IN AGGREGATE,
 MEMDDI DISTRIBUTED OVER   1 PROCESSORS IS           0 WORDS/PROCESSOR.
 TOTAL MEMORY REQUESTED ON EACH PROCESSOR=     1000000 WORDS.
 TIMLIM=      525600.00 MINUTES, OR     365.0 DAYS.
 PARALL= F  BALTYP=  DLB     KDIAG=    0  COREFL= F
 MXSEQ2=     300 MXSEQ3=     150

          ----------------
          PROPERTIES INPUT
          ----------------

     MOMENTS            FIELD           POTENTIAL          DENSITY
 IEMOM =       1   IEFLD =       0   IEPOT =       0   IEDEN =       0
 WHERE =COMASS     WHERE =NUCLEI     WHERE =NUCLEI     WHERE =NUCLEI  
 OUTPUT=BOTH       OUTPUT=BOTH       OUTPUT=BOTH       OUTPUT=BOTH    
 IEMINT=       0   IEFINT=       0                     IEDINT=       0
                                                       MORB  =       0
          EXTRAPOLATION IN EFFECT
          DIIS IN EFFECT
 ORBITAL PRINTING OPTION: NPREO=     1    49     2     1

     -------------------------------
     INTEGRAL TRANSFORMATION OPTIONS
     -------------------------------
     NWORD  =            0
     CUTOFF = 1.0E-09     MPTRAN =       0
     DIRTRF =       F     AOINTS =DUP     

          ----------------------
          INTEGRAL INPUT OPTIONS
          ----------------------
 NOPK  =       1 NORDER=       0 SCHWRZ=       F

   --- ENCODED Z MATRIX ---
 COORD  TYPE   I   J   K   L   M   N
    1      1    3   1
    2      1    2   1
    3      2    2   1   3

 THE DETERMINANT OF THE G MATRIX IS 10**(    -4)

 THE DETERMINANT OF THE G MATRIX IS 10**(    -4)
 * * * WARNING * * *
 YOUR B MATRIX HAS A SMALL DETERMINANT.
 THIS SUGGESTS YOU MAY HAVE BADLY CHOSEN COORDINATES.

     ------------------------------------------
     THE POINT GROUP IS CNV, NAXIS= 2, ORDER= 4
     ------------------------------------------

 -- VARIATIONAL SPACE WILL BE RESTRICTED TO PURE SPHERICAL HARMONICS ONLY --
 AFTER EXCLUDING CONTAMINANT COMBINATIONS FROM THE CARTESIAN GAUSSIAN BASIS
 SET, THE NUMBER OF SPHERICAL HARMONICS KEPT IN THE VARIATION SPACE IS   46

     DIMENSIONS OF THE SYMMETRY SUBSPACES ARE
 A1  =   19     A2  =    5     B1  =   14     B2  =    8

 ..... DONE SETTING UP THE RUN .....
 STEP CPU TIME =     0.01 TOTAL CPU TIME =        0.0 (    0.0 MIN)
 TOTAL WALL CLOCK TIME=        0.0 SECONDS, CPU UTILIZATION IS  50.00%

          ********************
          1 ELECTRON INTEGRALS
          ********************
 ...... END OF ONE-ELECTRON INTEGRALS ......
 STEP CPU TIME =     0.00 TOTAL CPU TIME =        0.0 (    0.0 MIN)
 TOTAL WALL CLOCK TIME=        0.0 SECONDS, CPU UTILIZATION IS  50.00%

          -------------
          GUESS OPTIONS
          -------------
          GUESS =HUCKEL            NORB  =       0          NORDER=       0
          MIX   =       F          PRTMO =       F          PUNMO =       F
          TOLZ  = 1.0E-08          TOLE  = 1.0E-05
          SYMDEN=       F          PURIFY=       F

 INITIAL GUESS ORBITALS GENERATED BY HUCKEL   ROUTINE.
 HUCKEL GUESS REQUIRES     21583 WORDS.

 STATISTICS FOR GENERATION OF SYMMETRY ORBITAL -Q- MATRIX
 NUMBER OF CARTESIAN ATOMIC ORBITALS=         49
 NUMBER OF SPHERICAL CONTAMINANTS DROPPED=     3
 NUMBER OF LINEARLY DEPENDENT MOS DROPPED=     0
 TOTAL NUMBER OF MOS IN VARIATION SPACE=      46

 SYMMETRIES FOR INITIAL GUESS ORBITALS FOLLOW.   BOTH SET(S).
    16 ORBITALS ARE OCCUPIED (    7 CORE ORBITALS).
     8=?A1      9=?B1     10=?A1     11=B2      12=A1      13=B1      14=A2  
    15=B1      16=?A1     17=B2      18=B1      19=A1      20=A1      21=A1  
    22=A1      23=A1      24=A1      25=A1      26=A1  
 ...... END OF INITIAL ORBITAL SELECTION ......
 STEP CPU TIME =     0.01 TOTAL CPU TIME =        0.0 (    0.0 MIN)
 TOTAL WALL CLOCK TIME=        0.0 SECONDS, CPU UTILIZATION IS  66.67%

                    ----------------------
                    AO INTEGRAL TECHNOLOGY
                    ----------------------
     S,P,L SHELL ROTATED AXIS INTEGRALS, REPROGRAMMED BY
        KAZUYA ISHIMURA (IMS) AND JOSE SIERRA (SYNSTAR).
     S,P,D,L SHELL ROTATED AXIS INTEGRALS PROGRAMMED BY
        KAZUYA ISHIMURA (INSTITUTE FOR MOLECULAR SCIENCE).
     S,P,D,F,G SHELL TO TOTAL QUARTET ANGULAR MOMENTUM SUM 5,
        ERIC PROGRAM BY GRAHAM FLETCHER (ELORET AND NASA ADVANCED
        SUPERCOMPUTING DIVISION, AMES RESEARCH CENTER).
     S,P,D,F,G,L SHELL GENERAL RYS QUADRATURE PROGRAMMED BY
        MICHEL DUPUIS (PACIFIC NORTHWEST NATIONAL LABORATORY).

          --------------------
          2 ELECTRON INTEGRALS
          --------------------

 THE -PK- OPTION IS OFF, THE INTEGRALS ARE NOT IN SUPERMATRIX FORM.
 STORING   15000 INTEGRALS/RECORD ON DISK, USING 12 BYTES/INTEGRAL.
 TWO ELECTRON INTEGRAL EVALUATION REQUIRES   90606 WORDS OF MEMORY.
 II,JST,KST,LST =  1  1  1  1 NREC =         1 INTLOC =    1
 II,JST,KST,LST =  2  1  1  1 NREC =         1 INTLOC =    2
 II,JST,KST,LST =  3  1  1  1 NREC =         1 INTLOC =    7
 II,JST,KST,LST =  4  1  1  1 NREC =         1 INTLOC =   22
 II,JST,KST,LST =  5  1  1  1 NREC =         1 INTLOC =   56
 II,JST,KST,LST =  6  1  1  1 NREC =         1 INTLOC =  125
 II,JST,KST,LST =  7  1  1  1 NREC =         1 INTLOC =  329
 II,JST,KST,LST =  8  1  1  1 NREC =         1 INTLOC =  776
 II,JST,KST,LST =  9  1  1  1 NREC =         1 INTLOC = 2864
 II,JST,KST,LST = 10  1  1  1 NREC =         1 INTLOC = 2864
 II,JST,KST,LST = 11  1  1  1 NREC =         1 INTLOC = 2864
 II,JST,KST,LST = 12  1  1  1 NREC =         1 INTLOC = 2864
 II,JST,KST,LST = 13  1  1  1 NREC =         1 INTLOC = 2864
 II,JST,KST,LST = 14  1  1  1 NREC =         1 INTLOC = 2864
 II,JST,KST,LST = 15  1  1  1 NREC =         1 INTLOC = 2864
 II,JST,KST,LST = 16  1  1  1 NREC =         1 INTLOC = 5060
 II,JST,KST,LST = 17  1  1  1 NREC =         1 INTLOC = 8225
 II,JST,KST,LST = 18  1  1  1 NREC =         1 INTLOC =12651
 II,JST,KST,LST = 19  1  1  1 NREC =         3 INTLOC =  475
 II,JST,KST,LST = 20  1  1  1 NREC =         5 INTLOC = 1621
 TOTAL NUMBER OF NONZERO TWO-ELECTRON INTEGRALS =              177750
         12 INTEGRAL RECORDS WERE STORED ON DISK FILE  8.
  ...... END OF TWO-ELECTRON INTEGRALS .....
 STEP CPU TIME =     0.16 TOTAL CPU TIME =        0.2 (    0.0 MIN)
 TOTAL WALL CLOCK TIME=        0.2 SECONDS, CPU UTILIZATION IS 100.00%

          --------------------------
               R-PBE SCF CALCULATION
          --------------------------

     NUCLEAR ENERGY =        98.4841966485
     MAXIT =   30     NPUNCH=    2
     EXTRAP=T  DAMP=F  SHIFT=F  RSTRCT=F  DIIS=T  DEM=F  SOSCF=F
         DENSITY MATRIX CONVERGENCE THRESHOLD=  1.00E-05
     COARSE -> FINE DFT GRID SWITCH THRESHOLD=  3.00E-04 (SWITCH IN $DFT)
                   HF -> DFT SWITCH THRESHOLD=  5.00E-03 (SWOFF IN $DFT)
     MEMORY REQUIRED FOR RHF ITERS=    183108 WORDS.

 DFT CODE IS SWITCHING FROM THE FINE GRID NRAD= 96,  NLEB=  302
                      TO THE COARSE GRID NRAD0= 24, NLEB0=  110

     EXCHANGE FUNCTIONAL   =PBE       
     CORRELATION FUNCTIONAL=PBE       
     DFT THRESHOLD         =.460E-07
     GRID CHANGE THRESHOLD =.300E-03
 FOR AN EULER-MACLAURIN QUADRATURE USING  96 RADIAL POINTS:
 SMALLEST GAUSSIAN PRIMITIVE EXPONENT=        0.1313100000 OF TYPE -P-
 ON ATOM NUMBER   1 HAS RADIAL NORMALIZATION=  1.000000
  LARGEST GAUSSIAN PRIMITIVE EXPONENT=    55510.0000000000 OF TYPE -S-
 ON ATOM NUMBER   1 HAS RADIAL NORMALIZATION=  0.999999
 DFT IS SWITCHED OFF, PERFORMING PURE SCF UNTIL SWOFF THRESHOLD IS REACHED.

 ITER EX DEM     TOTAL ENERGY        E CHANGE  DENSITY CHANGE    DIIS ERROR
   1  0  0     -546.0464758032  -546.0464758032   0.437528460   1.382756258
          * * *   INITIATING DIIS PROCEDURE   * * *
   2  1  0     -546.6594242777    -0.6129484745   0.455366906   0.358708585
   3  2  0     -546.7084574166    -0.0490331390   0.203926054   0.366894467
   4  3  0     -547.0420077647    -0.3335503480   0.014254597   0.012160270
   5  4  0     -547.0426382566    -0.0006304920   0.003525430   0.005580249
 CONVERGED TO SWOFF, SO DFT CALCULATION IS NOW SWITCHED ON.
          * * *   INITIATING DIIS PROCEDURE   * * *
   6  5  0     -548.1999285946    -1.1572903380   0.304689002   0.103361164
   7  6  0     -548.1833739901     0.0165546045   0.267442318   0.142972806
   8  7  0     -548.1954609489    -0.0120869588   0.085179952   0.148597468
   9  8  0     -548.2393424442    -0.0438814953   0.016277356   0.012201142
  10  9  0     -548.2399079875    -0.0005655433   0.001015089   0.001014695
  11 10  0     -548.2399115254    -0.0000035379   0.000511919   0.000555387
  12 11  0     -548.2399122322    -0.0000007069   0.000060215   0.000058702
 DFT CODE IS SWITCHING BACK TO THE FINE GRID
          * * *   INITIATING DIIS PROCEDURE   * * *
  13 12  0     -548.2325485880     0.0073636443   0.005744770   0.010821803
  14 13  0     -548.2326249826    -0.0000763946   0.013500060   0.006585207
  15 14  0     -548.2324494204     0.0001755622   0.009242361   0.011305294
  16 15  0     -548.2327179057    -0.0002684853   0.000681582   0.000665930
  17 16  0     -548.2327190829    -0.0000011771   0.000097844   0.000038277
  18 17  0     -548.2327190907    -0.0000000079   0.000009216   0.000005542
  19 18  0     -548.2327190908    -0.0000000001   0.000001103   0.000001472

          -----------------
          DENSITY CONVERGED
          -----------------
     TIME TO FORM FOCK OPERATORS=       3.8 SECONDS (       0.2 SEC/ITER)
     TIME TO SOLVE SCF EQUATIONS=       0.0 SECONDS (       0.0 SEC/ITER)

 FINAL R-PBE ENERGY IS     -548.2327190908 AFTER  19 ITERATIONS
 DFT EXCHANGE + CORRELATION ENERGY =       -42.3693033624
 TOTAL ELECTRON NUMBER             =        31.9999999315

          ------------
          EIGENVECTORS
          ------------

                      1          2          3          4          5
                  -88.2200   -18.8016   -18.8016    -7.8435    -5.8641
                     A1         A1         B1         A1         B1  
    1  S  1  S    1.002980  -0.000081   0.000000  -0.274077   0.000000
    2  S  1  S   -0.010272  -0.001062   0.000000   1.039577   0.000000
    3  S  1  S    0.001813  -0.002055   0.000000   0.041010   0.000000
    4  S  1  S   -0.000899   0.010588   0.000000  -0.012341   0.000000
    5  S  1  X    0.000000   0.000000   0.000070   0.000000   0.996756
    6  S  1  Y    0.000000   0.000000   0.000000   0.000000   0.000000
    7  S  1  Z    0.000050  -0.000122   0.000000   0.008486   0.000000
    8  S  1  X    0.000000   0.000000  -0.001293   0.000000   0.009227
    9  S  1  Y    0.000000   0.000000   0.000000   0.000000   0.000000
   10  S  1  Z    0.000076   0.001310   0.000000   0.001145   0.000000
   11  S  1  X    0.000000   0.000000  -0.003799   0.000000  -0.000253
   12  S  1  Y    0.000000   0.000000   0.000000   0.000000   0.000000
   13  S  1  Z   -0.000073   0.005030   0.000000  -0.000864   0.000000
   14  S  1 XX    0.000030   0.000727   0.000000   0.000439   0.000000
   15  S  1 YY   -0.000028  -0.001213   0.000000  -0.000331   0.000000
   16  S  1 ZZ   -0.000002   0.000485   0.000000  -0.000107   0.000000
   17  S  1 XY    0.000000   0.000000   0.000000   0.000000   0.000000
   18  S  1 XZ    0.000000   0.000000  -0.000997   0.000000   0.000558
   19  S  1 YZ    0.000000   0.000000   0.000000   0.000000   0.000000
   20  O  2  S    0.000006   0.703304   0.703243   0.000012   0.000164
   21  O  2  S    0.000009   0.025875   0.025371  -0.000152  -0.000012
   22  O  2  S    0.000046  -0.013358  -0.011013   0.000719  -0.000147
   23  O  2  X   -0.000014   0.000640   0.000783  -0.000256  -0.000170
   24  O  2  Y    0.000000   0.000000   0.000000   0.000000   0.000000
   25  O  2  Z    0.000008  -0.000602  -0.000682   0.000174   0.000163
   26  O  2  X   -0.000049  -0.003096  -0.002009  -0.000458  -0.000092
   27  O  2  Y    0.000000   0.000000   0.000000   0.000000   0.000000
   28  O  2  Z    0.000067   0.002044   0.002004   0.000650   0.000069
   29  O  2 XX   -0.000040  -0.000235  -0.000174  -0.000271  -0.000105
   30  O  2 YY    0.000057   0.000210   0.000275   0.000404   0.000196
   31  O  2 ZZ   -0.000018   0.000025  -0.000101  -0.000134  -0.000091
   32  O  2 XY    0.000000   0.000000   0.000000   0.000000   0.000000
   33  O  2 XZ    0.000098   0.000434   0.000328   0.000686   0.000331
   34  O  2 YZ    0.000000   0.000000   0.000000   0.000000   0.000000
   35  O  3  S    0.000006   0.703304  -0.703243   0.000012  -0.000164
   36  O  3  S    0.000009   0.025875  -0.025371  -0.000152   0.000012
   37  O  3  S    0.000046  -0.013358   0.011013   0.000719   0.000147
   38  O  3  X    0.000014  -0.000640   0.000783   0.000256  -0.000170
   39  O  3  Y    0.000000   0.000000   0.000000   0.000000   0.000000
   40  O  3  Z    0.000008  -0.000602   0.000682   0.000174  -0.000163
   41  O  3  X    0.000049   0.003096  -0.002009   0.000458  -0.000092
   42  O  3  Y    0.000000   0.000000   0.000000   0.000000   0.000000
   43  O  3  Z    0.000067   0.002044  -0.002004   0.000650  -0.000069
   44  O  3 XX   -0.000040  -0.000235   0.000174  -0.000271   0.000105
   45  O  3 YY    0.000057   0.000210  -0.000275   0.000404  -0.000196
   46  O  3 ZZ   -0.000018   0.000025   0.000101  -0.000134   0.000091
   47  O  3 XY    0.000000   0.000000   0.000000   0.000000   0.000000
   48  O  3 XZ   -0.000098  -0.000434   0.000328  -0.000686   0.000331
   49  O  3 YZ    0.000000   0.000000   0.000000   0.000000   0.000000

                      6          7          8          9         10
                   -5.8631    -5.8593    -0.9938    -0.9035    -0.6203
                     B2         A1         A1         B1         A1  
    1  S  1  S    0.000000   0.002336   0.047680   0.000000   0.070742
    2  S  1  S    0.000000  -0.009093  -0.135564   0.000000  -0.199174
    3  S  1  S    0.000000  -0.000402   0.284132   0.000000   0.447682
    4  S  1  S    0.000000  -0.000308   0.151845   0.000000   0.429337
    5  S  1  X    0.000000   0.000000   0.000000   0.099138   0.000000
    6  S  1  Y    0.996846   0.000000   0.000000   0.000000   0.000000
    7  S  1  Z    0.000000   0.996837  -0.062810   0.000000   0.054499
    8  S  1  X    0.000000   0.000000   0.000000  -0.198605   0.000000
    9  S  1  Y    0.009077   0.000000   0.000000   0.000000   0.000000
   10  S  1  Z    0.000000   0.008853   0.122410   0.000000  -0.112395
   11  S  1  X    0.000000   0.000000   0.000000  -0.031999   0.000000
   12  S  1  Y   -0.000231   0.000000   0.000000   0.000000   0.000000
   13  S  1  Z    0.000000  -0.000314   0.002314   0.000000  -0.074651
   14  S  1 XX    0.000000  -0.000293   0.021917   0.000000  -0.006783
   15  S  1 YY    0.000000  -0.000202  -0.028593   0.000000   0.017097
   16  S  1 ZZ    0.000000   0.000495   0.006676   0.000000  -0.010314
   17  S  1 XY    0.000000   0.000000   0.000000   0.000000   0.000000
   18  S  1 XZ    0.000000   0.000000   0.000000  -0.068711   0.000000
   19  S  1 YZ    0.000401   0.000000   0.000000   0.000000   0.000000
   20  O  2  S    0.000000  -0.000150  -0.123144  -0.149933   0.097083
   21  O  2  S    0.000000  -0.000067   0.243669   0.304337  -0.200041
   22  O  2  S    0.000000   0.000420   0.290802   0.368803  -0.309854
   23  O  2  X    0.000000   0.000201   0.084722   0.062000   0.073023
   24  O  2  Y    0.000022   0.000000   0.000000   0.000000   0.000000
   25  O  2  Z    0.000000  -0.000142  -0.065513  -0.067398  -0.085074
   26  O  2  X    0.000000   0.000169   0.036812   0.025967   0.031217
   27  O  2  Y   -0.000053   0.000000   0.000000   0.000000   0.000000
   28  O  2  Z    0.000000  -0.000247  -0.029509  -0.029047  -0.036304
   29  O  2 XX    0.000000   0.000154   0.005131   0.000236   0.001510
   30  O  2 YY    0.000000  -0.000202  -0.005649  -0.001952  -0.004770
   31  O  2 ZZ    0.000000   0.000048   0.000518   0.001716   0.003260
   32  O  2 XY    0.000023   0.000000   0.000000   0.000000   0.000000
   33  O  2 XZ    0.000000  -0.000361  -0.012803  -0.008657  -0.006602
   34  O  2 YZ   -0.000028   0.000000   0.000000   0.000000   0.000000
   35  O  3  S    0.000000  -0.000150  -0.123144   0.149933   0.097083
   36  O  3  S    0.000000  -0.000067   0.243669  -0.304337  -0.200041
   37  O  3  S    0.000000   0.000420   0.290802  -0.368803  -0.309854
   38  O  3  X    0.000000  -0.000201  -0.084722   0.062000  -0.073023
   39  O  3  Y    0.000022   0.000000   0.000000   0.000000   0.000000
   40  O  3  Z    0.000000  -0.000142  -0.065513   0.067398  -0.085074
   41  O  3  X    0.000000  -0.000169  -0.036812   0.025967  -0.031217
   42  O  3  Y   -0.000053   0.000000   0.000000   0.000000   0.000000
   43  O  3  Z    0.000000  -0.000247  -0.029509   0.029047  -0.036304
   44  O  3 XX    0.000000   0.000154   0.005131  -0.000236   0.001510
   45  O  3 YY    0.000000  -0.000202  -0.005649   0.001952  -0.004770
   46  O  3 ZZ    0.000000   0.000048   0.000518  -0.001716   0.003260
   47  O  3 XY   -0.000023   0.000000   0.000000   0.000000   0.000000
   48  O  3 XZ    0.000000   0.000361   0.012803  -0.008657   0.006602
   49  O  3 YZ   -0.000028   0.000000   0.000000   0.000000   0.000000

                     11         12         13         14         15
                   -0.4253    -0.4170    -0.4153    -0.3018    -0.2958
                     B1         A1         B2         A2         A1  
    1  S  1  S    0.000000  -0.007048   0.000000   0.000000   0.013056
    2  S  1  S    0.000000   0.048774   0.000000   0.000000  -0.061479
    3  S  1  S    0.000000  -0.005901   0.000000   0.000000   0.053068
    4  S  1  S    0.000000  -0.259316   0.000000   0.000000   0.312948
    5  S  1  X   -0.181750   0.000000   0.000000   0.000000   0.000000
    6  S  1  Y    0.000000   0.000000  -0.210782   0.000000   0.000000
    7  S  1  Z    0.000000  -0.200259   0.000000   0.000000   0.077476
    8  S  1  X    0.432106   0.000000   0.000000   0.000000   0.000000
    9  S  1  Y    0.000000   0.000000   0.495631   0.000000   0.000000
   10  S  1  Z    0.000000   0.471220   0.000000   0.000000  -0.186361
   11  S  1  X    0.135614   0.000000   0.000000   0.000000   0.000000
   12  S  1  Y    0.000000   0.000000   0.292305   0.000000   0.000000
   13  S  1  Z    0.000000   0.191714   0.000000   0.000000  -0.062048
   14  S  1 XX    0.000000  -0.027210   0.000000   0.000000  -0.117128
   15  S  1 YY    0.000000  -0.019788   0.000000   0.000000   0.036424
   16  S  1 ZZ    0.000000   0.046997   0.000000   0.000000   0.080704
   17  S  1 XY    0.000000   0.000000   0.000000  -0.099107   0.000000
   18  S  1 XZ    0.045385   0.000000   0.000000   0.000000   0.000000
   19  S  1 YZ    0.000000   0.000000   0.046764   0.000000   0.000000
   20  O  2  S   -0.061635   0.040846   0.000000   0.000000  -0.002721
   21  O  2  S    0.122621  -0.081803   0.000000   0.000000   0.005332
   22  O  2  S    0.238382  -0.148215   0.000000   0.000000  -0.012102
   23  O  2  X   -0.201992   0.317331   0.000000   0.000000   0.093379
   24  O  2  Y    0.000000   0.000000   0.287109   0.472169   0.000000
   25  O  2  Z    0.291258  -0.011803   0.000000   0.000000   0.435184
   26  O  2  X   -0.117746   0.198410   0.000000   0.000000   0.069935
   27  O  2  Y    0.000000   0.000000   0.172491   0.337562   0.000000
   28  O  2  Z    0.167317  -0.009433   0.000000   0.000000   0.322720
   29  O  2 XX    0.001194   0.015884   0.000000   0.000000   0.009705
   30  O  2 YY    0.007571  -0.006063   0.000000   0.000000   0.003949
   31  O  2 ZZ   -0.008764  -0.009821   0.000000   0.000000  -0.013654
   32  O  2 XY    0.000000   0.000000   0.015279   0.012862   0.000000
   33  O  2 XZ    0.011046  -0.006792   0.000000   0.000000   0.009505
   34  O  2 YZ    0.000000   0.000000  -0.012527  -0.013563   0.000000
   35  O  3  S    0.061635   0.040846   0.000000   0.000000  -0.002721
   36  O  3  S   -0.122621  -0.081803   0.000000   0.000000   0.005332
   37  O  3  S   -0.238382  -0.148215   0.000000   0.000000  -0.012102
   38  O  3  X   -0.201992  -0.317331   0.000000   0.000000  -0.093379
   39  O  3  Y    0.000000   0.000000   0.287109  -0.472169   0.000000
   40  O  3  Z   -0.291258  -0.011803   0.000000   0.000000   0.435184
   41  O  3  X   -0.117746  -0.198410   0.000000   0.000000  -0.069935
   42  O  3  Y    0.000000   0.000000   0.172491  -0.337562   0.000000
   43  O  3  Z   -0.167317  -0.009433   0.000000   0.000000   0.322720
   44  O  3 XX   -0.001194   0.015884   0.000000   0.000000   0.009705
   45  O  3 YY   -0.007571  -0.006063   0.000000   0.000000   0.003949
   46  O  3 ZZ    0.008764  -0.009821   0.000000   0.000000  -0.013654
   47  O  3 XY    0.000000   0.000000  -0.015279   0.012862   0.000000
   48  O  3 XZ    0.011046   0.006792   0.000000   0.000000  -0.009505
   49  O  3 YZ    0.000000   0.000000  -0.012527   0.013563   0.000000

                     16         17         18         19         20
                   -0.2672    -0.2009    -0.0623    -0.0088     0.3435
                     B1         B2         B1         A1         A1  
    1  S  1  S    0.000000   0.000000   0.000000   0.031978  -0.008935
    2  S  1  S    0.000000   0.000000   0.000000  -0.118560  -0.074081
    3  S  1  S    0.000000   0.000000   0.000000   0.184830  -0.185827
    4  S  1  S    0.000000   0.000000   0.000000   0.763221   0.544541
    5  S  1  X   -0.013678   0.000000  -0.193207   0.000000   0.000000
    6  S  1  Y    0.000000  -0.201923   0.000000   0.000000   0.000000
    7  S  1  Z    0.000000   0.000000   0.000000  -0.163586   0.283550
    8  S  1  X    0.024911   0.000000   0.489679   0.000000   0.000000
    9  S  1  Y    0.000000   0.506890   0.000000   0.000000   0.000000
   10  S  1  Z    0.000000   0.000000   0.000000   0.423500  -1.063483
   11  S  1  X    0.156329   0.000000   0.820182   0.000000   0.000000
   12  S  1  Y    0.000000   0.424271   0.000000   0.000000   0.000000
   13  S  1  Z    0.000000   0.000000   0.000000   0.864478   1.406865
   14  S  1 XX    0.000000   0.000000   0.000000  -0.090706   0.208616
   15  S  1 YY    0.000000   0.000000   0.000000   0.194799  -0.008905
   16  S  1 ZZ    0.000000   0.000000   0.000000  -0.104093  -0.199712
   17  S  1 XY    0.000000   0.000000   0.000000   0.000000   0.000000
   18  S  1 XZ   -0.086771   0.000000  -0.199266   0.000000   0.000000
   19  S  1 YZ    0.000000  -0.076645   0.000000   0.000000   0.000000
   20  O  2  S   -0.004761   0.000000  -0.037421   0.052006   0.010230
   21  O  2  S    0.009291   0.000000   0.062674  -0.083735   0.050658
   22  O  2  S    0.054578   0.000000   0.354784  -0.486958  -0.458798
   23  O  2  X    0.425241   0.000000   0.059809  -0.320867   0.194878
   24  O  2  Y    0.000000  -0.385567   0.000000   0.000000   0.000000
   25  O  2  Z    0.231367   0.000000  -0.323514   0.121066  -0.090499
   26  O  2  X    0.295795   0.000000   0.069537  -0.394482  -0.191225
   27  O  2  Y    0.000000  -0.318909   0.000000   0.000000   0.000000
   28  O  2  Z    0.154348   0.000000  -0.308605   0.124351  -0.002969
   29  O  2 XX    0.014922   0.000000   0.001761   0.000858  -0.041237
   30  O  2 YY   -0.000684   0.000000   0.002051   0.005111   0.021611
   31  O  2 ZZ   -0.014238   0.000000  -0.003812  -0.005969   0.019626
   32  O  2 XY    0.000000  -0.003749   0.000000   0.000000   0.000000
   33  O  2 XZ   -0.003359   0.000000   0.000406  -0.000572   0.021807
   34  O  2 YZ    0.000000   0.001457   0.000000   0.000000   0.000000
   35  O  3  S    0.004761   0.000000   0.037421   0.052006   0.010230
   36  O  3  S   -0.009291   0.000000  -0.062674  -0.083735   0.050658
   37  O  3  S   -0.054578   0.000000  -0.354784  -0.486958  -0.458798
   38  O  3  X    0.425241   0.000000   0.059809   0.320867  -0.194878
   39  O  3  Y    0.000000  -0.385567   0.000000   0.000000   0.000000
   40  O  3  Z   -0.231367   0.000000   0.323514   0.121066  -0.090499
   41  O  3  X    0.295795   0.000000   0.069537   0.394482   0.191225
   42  O  3  Y    0.000000  -0.318909   0.000000   0.000000   0.000000
   43  O  3  Z   -0.154348   0.000000   0.308605   0.124351  -0.002969
   44  O  3 XX   -0.014922   0.000000  -0.001761   0.000858  -0.041237
   45  O  3 YY    0.000684   0.000000  -0.002051   0.005111   0.021611
   46  O  3 ZZ    0.014238   0.000000   0.003812  -0.005969   0.019626
   47  O  3 XY    0.000000   0.003749   0.000000   0.000000   0.000000
   48  O  3 XZ   -0.003359   0.000000   0.000406   0.000572  -0.021807
   49  O  3 YZ    0.000000   0.001457   0.000000   0.000000   0.000000

                     21         22         23         24         25
                    0.3496     0.3643     0.3965     0.4983     0.5076
                     B2         B1         A1         A2         B2  
    1  S  1  S    0.000000   0.000000  -0.111677   0.000000   0.000000
    2  S  1  S    0.000000   0.000000  -0.406877   0.000000   0.000000
    3  S  1  S    0.000000   0.000000  -1.726840   0.000000   0.000000
    4  S  1  S    0.000000   0.000000   2.203241   0.000000   0.000000
    5  S  1  X    0.000000   0.293711   0.000000   0.000000   0.000000
    6  S  1  Y    0.285411   0.000000   0.000000   0.000000   0.071509
    7  S  1  Z    0.000000   0.000000  -0.042485   0.000000   0.000000
    8  S  1  X    0.000000  -1.106674   0.000000   0.000000   0.000000
    9  S  1  Y   -1.104238   0.000000   0.000000   0.000000  -0.286411
   10  S  1  Z    0.000000   0.000000   0.168007   0.000000   0.000000
   11  S  1  X    0.000000   1.450551   0.000000   0.000000   0.000000
   12  S  1  Y    1.231936   0.000000   0.000000   0.000000   0.272497
   13  S  1  Z    0.000000   0.000000   0.175342   0.000000   0.000000
   14  S  1 XX    0.000000   0.000000  -0.161526   0.000000   0.000000
   15  S  1 YY    0.000000   0.000000   0.276335   0.000000   0.000000
   16  S  1 ZZ    0.000000   0.000000  -0.114809   0.000000   0.000000
   17  S  1 XY    0.000000   0.000000   0.000000   0.908690   0.000000
   18  S  1 XZ    0.000000   0.102033   0.000000   0.000000   0.000000
   19  S  1 YZ   -0.240701   0.000000   0.000000   0.000000   0.874973
   20  O  2  S    0.000000  -0.009457   0.018422   0.000000   0.000000
   21  O  2  S    0.000000  -0.037763  -0.038497   0.000000   0.000000
   22  O  2  S    0.000000   0.437804  -0.347778   0.000000   0.000000
   23  O  2  X    0.000000  -0.215603   0.087725   0.000000   0.000000
   24  O  2  Y   -0.015092   0.000000   0.000000   0.296350  -0.304144
   25  O  2  Z    0.000000   0.096655  -0.096156   0.000000   0.000000
   26  O  2  X    0.000000   0.025448  -0.163631   0.000000   0.000000
   27  O  2  Y   -0.125095   0.000000   0.000000  -0.101954   0.107582
   28  O  2  Z    0.000000  -0.135134   0.112079   0.000000   0.000000
   29  O  2 XX    0.000000   0.003579  -0.018929   0.000000   0.000000
   30  O  2 YY    0.000000  -0.020862   0.032612   0.000000   0.000000
   31  O  2 ZZ    0.000000   0.017283  -0.013683   0.000000   0.000000
   32  O  2 XY   -0.024822   0.000000   0.000000  -0.028774   0.041412
   33  O  2 XZ    0.000000  -0.037968   0.038698   0.000000   0.000000
   34  O  2 YZ    0.014189   0.000000   0.000000   0.046028  -0.009472
   35  O  3  S    0.000000   0.009457   0.018422   0.000000   0.000000
   36  O  3  S    0.000000   0.037763  -0.038497   0.000000   0.000000
   37  O  3  S    0.000000  -0.437804  -0.347778   0.000000   0.000000
   38  O  3  X    0.000000  -0.215603  -0.087725   0.000000   0.000000
   39  O  3  Y   -0.015092   0.000000   0.000000  -0.296350  -0.304144
   40  O  3  Z    0.000000  -0.096655  -0.096156   0.000000   0.000000
   41  O  3  X    0.000000   0.025448   0.163631   0.000000   0.000000
   42  O  3  Y   -0.125095   0.000000   0.000000   0.101954   0.107582
   43  O  3  Z    0.000000   0.135134   0.112079   0.000000   0.000000
   44  O  3 XX    0.000000  -0.003579  -0.018929   0.000000   0.000000
   45  O  3 YY    0.000000   0.020862   0.032612   0.000000   0.000000
   46  O  3 ZZ    0.000000  -0.017283  -0.013683   0.000000   0.000000
   47  O  3 XY    0.024822   0.000000   0.000000  -0.028774  -0.041412
   48  O  3 XZ    0.000000  -0.037968  -0.038698   0.000000   0.000000
   49  O  3 YZ    0.014189   0.000000   0.000000  -0.046028  -0.009472

                     26         27         28         29         30
                    0.5249     0.6449     0.6923     0.7759     0.8142
                     A1         A1         B1         A1         A2  
    1  S  1  S   -0.002874  -0.018274   0.000000  -0.007802   0.000000
    2  S  1  S   -0.019933  -0.175277   0.000000  -0.029054   0.000000
    3  S  1  S   -0.055740  -0.412483   0.000000  -0.128398   0.000000
    4  S  1  S    0.134604   1.534494   0.000000  -0.095135   0.000000
    5  S  1  X    0.000000   0.000000  -0.099057   0.000000   0.000000
    6  S  1  Y    0.000000   0.000000   0.000000   0.000000   0.000000
    7  S  1  Z    0.074958  -0.083765   0.000000  -0.008073   0.000000
    8  S  1  X    0.000000   0.000000   0.495011   0.000000   0.000000
    9  S  1  Y    0.000000   0.000000   0.000000   0.000000   0.000000
   10  S  1  Z   -0.296333   0.373395   0.000000  -0.007409   0.000000
   11  S  1  X    0.000000   0.000000   0.389134   0.000000   0.000000
   12  S  1  Y    0.000000   0.000000   0.000000   0.000000   0.000000
   13  S  1  Z    0.344211   0.455442   0.000000  -0.405367   0.000000
   14  S  1 XX   -0.588974   0.578248   0.000000   0.535718   0.000000
   15  S  1 YY   -0.174353  -0.864950   0.000000  -0.078296   0.000000
   16  S  1 ZZ    0.763327   0.286702   0.000000  -0.457423   0.000000
   17  S  1 XY    0.000000   0.000000   0.000000   0.000000   0.435016
   18  S  1 XZ    0.000000   0.000000   0.784410   0.000000   0.000000
   19  S  1 YZ    0.000000   0.000000   0.000000   0.000000   0.000000
   20  O  2  S    0.003575   0.063185  -0.062764   0.000267   0.000000
   21  O  2  S   -0.016327  -0.233114   0.231895  -0.038656   0.000000
   22  O  2  S   -0.077861  -0.434492   0.293829   0.126800   0.000000
   23  O  2  X   -0.203187   0.137690  -0.175765  -0.470024   0.000000
   24  O  2  Y    0.000000   0.000000   0.000000   0.000000  -0.582320
   25  O  2  Z   -0.338921  -0.075027   0.182746  -0.257206   0.000000
   26  O  2  X    0.055338  -0.634389   0.694764   0.634824   0.000000
   27  O  2  Y    0.000000   0.000000   0.000000   0.000000   0.788278
   28  O  2  Z    0.120543   0.472747  -0.618738   0.405027   0.000000
   29  O  2 XX    0.046555  -0.002283  -0.017497  -0.042624   0.000000
   30  O  2 YY    0.000727  -0.013453   0.011077  -0.010818   0.000000
   31  O  2 ZZ   -0.047282   0.015736   0.006420   0.053441   0.000000
   32  O  2 XY    0.000000   0.000000   0.000000   0.000000  -0.039389
   33  O  2 XZ    0.024853   0.006594   0.023332   0.006420   0.000000
   34  O  2 YZ    0.000000   0.000000   0.000000   0.000000   0.034077
   35  O  3  S    0.003575   0.063185   0.062764   0.000267   0.000000
   36  O  3  S   -0.016327  -0.233114  -0.231895  -0.038656   0.000000
   37  O  3  S   -0.077861  -0.434492  -0.293829   0.126800   0.000000
   38  O  3  X    0.203187  -0.137690  -0.175765   0.470024   0.000000
   39  O  3  Y    0.000000   0.000000   0.000000   0.000000   0.582320
   40  O  3  Z   -0.338921  -0.075027  -0.182746  -0.257206   0.000000
   41  O  3  X   -0.055338   0.634389   0.694764  -0.634824   0.000000
   42  O  3  Y    0.000000   0.000000   0.000000   0.000000  -0.788278
   43  O  3  Z    0.120543   0.472747   0.618738   0.405027   0.000000
   44  O  3 XX    0.046555  -0.002283   0.017497  -0.042624   0.000000
   45  O  3 YY    0.000727  -0.013453  -0.011077  -0.010818   0.000000
   46  O  3 ZZ   -0.047282   0.015736  -0.006420   0.053441   0.000000
   47  O  3 XY    0.000000   0.000000   0.000000   0.000000  -0.039389
   48  O  3 XZ   -0.024853  -0.006594   0.023332  -0.006420   0.000000
   49  O  3 YZ    0.000000   0.000000   0.000000   0.000000  -0.034077

                     31         32         33         34         35
                    0.8318     0.8482     0.8844     0.9724     1.5551
                     B2         A1         B1         B1         B1  
    1  S  1  S    0.000000   0.035686   0.000000   0.000000   0.000000
    2  S  1  S    0.000000   0.200602   0.000000   0.000000   0.000000
    3  S  1  S    0.000000   0.662335   0.000000   0.000000   0.000000
    4  S  1  S    0.000000  -0.326600   0.000000   0.000000   0.000000
    5  S  1  X    0.000000   0.000000  -0.012058   0.010733  -0.027077
    6  S  1  Y   -0.025736   0.000000   0.000000   0.000000   0.000000
    7  S  1  Z    0.000000  -0.029273   0.000000   0.000000   0.000000
    8  S  1  X    0.000000   0.000000  -0.012226  -0.207059   0.218458
    9  S  1  Y    0.121688   0.000000   0.000000   0.000000   0.000000
   10  S  1  Z    0.000000   0.284152   0.000000   0.000000   0.000000
   11  S  1  X    0.000000   0.000000  -0.296824   0.680444   0.812888
   12  S  1  Y   -0.625744   0.000000   0.000000   0.000000   0.000000
   13  S  1  Z    0.000000  -0.398608   0.000000   0.000000   0.000000
   14  S  1 XX    0.000000  -0.146121   0.000000   0.000000   0.000000
   15  S  1 YY    0.000000   0.458897   0.000000   0.000000   0.000000
   16  S  1 ZZ    0.000000  -0.312776   0.000000   0.000000   0.000000
   17  S  1 XY    0.000000   0.000000   0.000000   0.000000   0.000000
   18  S  1 XZ    0.000000   0.000000   0.392169   0.710893   0.313039
   19  S  1 YZ   -0.441267   0.000000   0.000000   0.000000   0.000000
   20  O  2  S    0.000000  -0.007877  -0.008372  -0.020767   0.012237
   21  O  2  S    0.000000   0.070690   0.044250   0.000939  -1.163262
   22  O  2  S    0.000000   0.094180  -0.040111   0.350227   1.633412
   23  O  2  X    0.000000   0.314586  -0.150652   0.592533  -0.064369
   24  O  2  Y   -0.572600   0.000000   0.000000   0.000000   0.000000
   25  O  2  Z    0.000000  -0.483425  -0.606789  -0.103629   0.045884
   26  O  2  X    0.000000  -0.301146   0.352160  -0.597425   0.379570
   27  O  2  Y    0.872273   0.000000   0.000000   0.000000   0.000000
   28  O  2  Z    0.000000   0.633670   0.738357  -0.143216  -0.389698
   29  O  2 XX    0.000000  -0.003964  -0.038150   0.034784  -0.099159
   30  O  2 YY    0.000000  -0.015259   0.008695  -0.029144   0.135224
   31  O  2 ZZ    0.000000   0.019223   0.029455  -0.005640  -0.036065
   32  O  2 XY   -0.040938   0.000000   0.000000   0.000000   0.000000
   33  O  2 XZ    0.000000  -0.061756  -0.006527   0.016257   0.146856
   34  O  2 YZ    0.031246   0.000000   0.000000   0.000000   0.000000
   35  O  3  S    0.000000  -0.007877   0.008372   0.020767  -0.012237
   36  O  3  S    0.000000   0.070690  -0.044250  -0.000939   1.163262
   37  O  3  S    0.000000   0.094180   0.040111  -0.350227  -1.633412
   38  O  3  X    0.000000  -0.314586  -0.150652   0.592533  -0.064369
   39  O  3  Y   -0.572600   0.000000   0.000000   0.000000   0.000000
   40  O  3  Z    0.000000  -0.483425   0.606789   0.103629  -0.045884
   41  O  3  X    0.000000   0.301146   0.352160  -0.597425   0.379570
   42  O  3  Y    0.872273   0.000000   0.000000   0.000000   0.000000
   43  O  3  Z    0.000000   0.633670  -0.738357   0.143216   0.389698
   44  O  3 XX    0.000000  -0.003964   0.038150  -0.034784   0.099159
   45  O  3 YY    0.000000  -0.015259  -0.008695   0.029144  -0.135224
   46  O  3 ZZ    0.000000   0.019223  -0.029455   0.005640   0.036065
   47  O  3 XY    0.040938   0.000000   0.000000   0.000000   0.000000
   48  O  3 XZ    0.000000   0.061756  -0.006527   0.016257   0.146856
   49  O  3 YZ    0.031246   0.000000   0.000000   0.000000   0.000000

                     36         37         38         39         40
                    1.6836     2.0888     2.0899     2.0901     2.0996
                     A1         B2         B1         A2         A1  
    1  S  1  S   -0.030847   0.000000   0.000000   0.000000   0.002682
    2  S  1  S   -0.307431   0.000000   0.000000   0.000000   0.019659
    3  S  1  S   -0.708113   0.000000   0.000000   0.000000   0.052810
    4  S  1  S    2.292208   0.000000   0.000000   0.000000  -0.168783
    5  S  1  X    0.000000   0.000000  -0.018661   0.000000   0.000000
    6  S  1  Y    0.000000  -0.008387   0.000000   0.000000   0.000000
    7  S  1  Z   -0.031195   0.000000   0.000000   0.000000  -0.002589
    8  S  1  X    0.000000   0.000000   0.058203   0.000000   0.000000
    9  S  1  Y    0.000000   0.022664   0.000000   0.000000   0.000000
   10  S  1  Z    0.191475   0.000000   0.000000   0.000000   0.001109
   11  S  1  X    0.000000   0.000000   0.101783   0.000000   0.000000
   12  S  1  Y    0.000000   0.036436   0.000000   0.000000   0.000000
   13  S  1  Z    1.059554   0.000000   0.000000   0.000000  -0.092959
   14  S  1 XX    0.235505   0.000000   0.000000   0.000000   0.018085
   15  S  1 YY   -0.379465   0.000000   0.000000   0.000000  -0.057911
   16  S  1 ZZ    0.143961   0.000000   0.000000   0.000000   0.039826
   17  S  1 XY    0.000000   0.000000   0.000000   0.027796   0.000000
   18  S  1 XZ    0.000000   0.000000  -0.057123   0.000000   0.000000
   19  S  1 YZ    0.000000  -0.002468   0.000000   0.000000   0.000000
   20  O  2  S    0.003361   0.000000  -0.000269   0.000000   0.001082
   21  O  2  S    1.204048   0.000000  -0.057955   0.000000  -0.092392
   22  O  2  S   -2.061884   0.000000   0.096778   0.000000   0.145608
   23  O  2  X   -0.006747   0.000000   0.015224   0.000000  -0.027879
   24  O  2  Y    0.000000   0.020246   0.000000  -0.019469   0.000000
   25  O  2  Z   -0.003525   0.000000   0.032033   0.000000   0.001396
   26  O  2  X   -0.551774   0.000000  -0.014687   0.000000   0.068050
   27  O  2  Y    0.000000  -0.034914   0.000000   0.030127   0.000000
   28  O  2  Z    0.334437   0.000000  -0.060695   0.000000  -0.013099
   29  O  2 XX    0.081074   0.000000  -0.220204   0.000000  -0.295766
   30  O  2 YY   -0.059829   0.000000  -0.450312   0.000000   0.626634
   31  O  2 ZZ   -0.021246   0.000000   0.670516   0.000000  -0.330868
   32  O  2 XY    0.000000   0.331723   0.000000   0.573697   0.000000
   33  O  2 XZ   -0.193292   0.000000   0.188210   0.000000  -0.324932
   34  O  2 YZ    0.000000   0.624807   0.000000   0.413831   0.000000
   35  O  3  S    0.003361   0.000000   0.000269   0.000000   0.001082
   36  O  3  S    1.204048   0.000000   0.057955   0.000000  -0.092392
   37  O  3  S   -2.061884   0.000000  -0.096778   0.000000   0.145608
   38  O  3  X    0.006747   0.000000   0.015224   0.000000   0.027879
   39  O  3  Y    0.000000   0.020246   0.000000   0.019469   0.000000
   40  O  3  Z   -0.003525   0.000000  -0.032033   0.000000   0.001396
   41  O  3  X    0.551774   0.000000  -0.014687   0.000000  -0.068050
   42  O  3  Y    0.000000  -0.034914   0.000000  -0.030127   0.000000
   43  O  3  Z    0.334437   0.000000   0.060695   0.000000  -0.013099
   44  O  3 XX    0.081074   0.000000   0.220204   0.000000  -0.295766
   45  O  3 YY   -0.059829   0.000000   0.450312   0.000000   0.626634
   46  O  3 ZZ   -0.021246   0.000000  -0.670516   0.000000  -0.330868
   47  O  3 XY    0.000000  -0.331723   0.000000   0.573697   0.000000
   48  O  3 XZ    0.193292   0.000000   0.188210   0.000000   0.324932
   49  O  3 YZ    0.000000   0.624807   0.000000  -0.413831   0.000000

                     41         42         43         44         45
                    2.1210     2.1809     2.2089     2.3154     2.5963
                     B1         A2         B2         A1         A1  
    1  S  1  S    0.000000   0.000000   0.000000  -0.005997   0.026315
    2  S  1  S    0.000000   0.000000   0.000000  -0.035965  -0.100678
    3  S  1  S    0.000000   0.000000   0.000000  -0.112396   0.193241
    4  S  1  S    0.000000   0.000000   0.000000   0.180422   1.180565
    5  S  1  X    0.014515   0.000000   0.000000   0.000000   0.000000
    6  S  1  Y    0.000000   0.000000   0.039324   0.000000   0.000000
    7  S  1  Z    0.000000   0.000000   0.000000  -0.024319  -0.138205
    8  S  1  X   -0.013312   0.000000   0.000000   0.000000   0.000000
    9  S  1  Y    0.000000   0.000000  -0.105652   0.000000   0.000000
   10  S  1  Z    0.000000   0.000000   0.000000   0.047937   0.644448
   11  S  1  X   -0.104614   0.000000   0.000000   0.000000   0.000000
   12  S  1  Y    0.000000   0.000000  -0.163588   0.000000   0.000000
   13  S  1  Z    0.000000   0.000000   0.000000   0.228323   0.403784
   14  S  1 XX    0.000000   0.000000   0.000000  -0.361183   0.287200
   15  S  1 YY    0.000000   0.000000   0.000000  -0.021844  -0.422188
   16  S  1 ZZ    0.000000   0.000000   0.000000   0.383027   0.134988
   17  S  1 XY    0.000000  -0.327602   0.000000   0.000000   0.000000
   18  S  1 XZ    0.017060   0.000000   0.000000   0.000000   0.000000
   19  S  1 YZ    0.000000   0.000000  -0.296655   0.000000   0.000000
   20  O  2  S    0.001731   0.000000   0.000000   0.002220   0.020639
   21  O  2  S   -0.057544   0.000000   0.000000   0.041934   0.602996
   22  O  2  S    0.036169   0.000000   0.000000  -0.131664  -1.165458
   23  O  2  X   -0.083545   0.000000   0.000000   0.001649   0.037528
   24  O  2  Y    0.000000   0.043939  -0.053559   0.000000   0.000000
   25  O  2  Z   -0.037341   0.000000   0.000000   0.035624  -0.038607
   26  O  2  X    0.139973   0.000000   0.000000  -0.085884  -0.513476
   27  O  2  Y    0.000000  -0.097537   0.142260   0.000000   0.000000
   28  O  2  Z    0.068807   0.000000   0.000000  -0.105239   0.395246
   29  O  2 XX    0.620946   0.000000   0.000000  -0.590884  -0.320938
   30  O  2 YY   -0.405877   0.000000   0.000000  -0.056253   0.360559
   31  O  2 ZZ   -0.215069   0.000000   0.000000   0.647137  -0.039621
   32  O  2 XY    0.000000  -0.423581   0.637300   0.000000   0.000000
   33  O  2 XZ    0.324084   0.000000   0.000000  -0.156647   0.642422
   34  O  2 YZ    0.000000   0.581567  -0.343301   0.000000   0.000000
   35  O  3  S   -0.001731   0.000000   0.000000   0.002220   0.020639
   36  O  3  S    0.057544   0.000000   0.000000   0.041934   0.602996
   37  O  3  S   -0.036169   0.000000   0.000000  -0.131664  -1.165458
   38  O  3  X   -0.083545   0.000000   0.000000  -0.001649  -0.037528
   39  O  3  Y    0.000000  -0.043939  -0.053559   0.000000   0.000000
   40  O  3  Z    0.037341   0.000000   0.000000   0.035624  -0.038607
   41  O  3  X    0.139973   0.000000   0.000000   0.085884   0.513476
   42  O  3  Y    0.000000   0.097537   0.142260   0.000000   0.000000
   43  O  3  Z   -0.068807   0.000000   0.000000  -0.105239   0.395246
   44  O  3 XX   -0.620946   0.000000   0.000000  -0.590884  -0.320938
   45  O  3 YY    0.405877   0.000000   0.000000  -0.056253   0.360559
   46  O  3 ZZ    0.215069   0.000000   0.000000   0.647137  -0.039621
   47  O  3 XY    0.000000  -0.423581  -0.637300   0.000000   0.000000
   48  O  3 XZ    0.324084   0.000000   0.000000   0.156647  -0.642422
   49  O  3 YZ    0.000000  -0.581567  -0.343301   0.000000   0.000000

                     46
                    2.7205
                     B1  
    1  S  1  S    0.000000
    2  S  1  S    0.000000
    3  S  1  S    0.000000
    4  S  1  S    0.000000
    5  S  1  X   -0.170899
    6  S  1  Y    0.000000
    7  S  1  Z    0.000000
    8  S  1  X    0.797551
    9  S  1  Y    0.000000
   10  S  1  Z    0.000000
   11  S  1  X    0.380130
   12  S  1  Y    0.000000
   13  S  1  Z    0.000000
   14  S  1 XX    0.000000
   15  S  1 YY    0.000000
   16  S  1 ZZ    0.000000
   17  S  1 XY    0.000000
   18  S  1 XZ    0.712066
   19  S  1 YZ    0.000000
   20  O  2  S   -0.024990
   21  O  2  S   -0.551701
   22  O  2  S    1.051782
   23  O  2  X   -0.018116
   24  O  2  Y    0.000000
   25  O  2  Z    0.006481
   26  O  2  X    0.485781
   27  O  2  Y    0.000000
   28  O  2  Z   -0.422693
   29  O  2 XX    0.291304
   30  O  2 YY   -0.394749
   31  O  2 ZZ    0.103445
   32  O  2 XY    0.000000
   33  O  2 XZ   -0.681671
   34  O  2 YZ    0.000000
   35  O  3  S    0.024990
   36  O  3  S    0.551701
   37  O  3  S   -1.051782
   38  O  3  X   -0.018116
   39  O  3  Y    0.000000
   40  O  3  Z   -0.006481
   41  O  3  X    0.485781
   42  O  3  Y    0.000000
   43  O  3  Z    0.422693
   44  O  3 XX   -0.291304
   45  O  3 YY    0.394749
   46  O  3 ZZ   -0.103445
   47  O  3 XY    0.000000
   48  O  3 XZ   -0.681671
   49  O  3 YZ    0.000000
 ...... END OF RHF CALCULATION ......
 STEP CPU TIME =     3.89 TOTAL CPU TIME =        4.1 (    0.1 MIN)
 TOTAL WALL CLOCK TIME=        4.1 SECONDS, CPU UTILIZATION IS  99.75%

     ---------------------------------------------------------------------
     PROPERTIES FOR THE PBE      DFT FUNCTIONAL (RHF  TYPE) DENSITY MATRIX
     ---------------------------------------------------------------------

          -----------------
          ENERGY COMPONENTS
          -----------------

         WAVEFUNCTION NORMALIZATION =       1.0000000000

                ONE ELECTRON ENERGY =    -951.5546203603
                TWO ELECTRON ENERGY =     304.8377046210
           NUCLEAR REPULSION ENERGY =      98.4841966485
                                      ------------------
                       TOTAL ENERGY =    -548.2327190908

 ELECTRON-ELECTRON POTENTIAL ENERGY =     304.8377046210
  NUCLEUS-ELECTRON POTENTIAL ENERGY =   -1498.7487590564
   NUCLEUS-NUCLEUS POTENTIAL ENERGY =      98.4841966485
                                      ------------------
             TOTAL POTENTIAL ENERGY =   -1095.4268577869
               TOTAL KINETIC ENERGY =     547.1941386961
                 VIRIAL RATIO (V/T) =       2.0018980108

          ---------------------------------------
          MULLIKEN AND LOWDIN POPULATION ANALYSES
          ---------------------------------------

     ATOMIC MULLIKEN POPULATION IN EACH MOLECULAR ORBITAL

                      1          2          3          4          5

                  2.000000   2.000000   2.000000   2.000000   2.000000

    1             2.000006   0.001586   0.000701   2.000408   1.999926
    2            -0.000003   0.999207   0.999650  -0.000204   0.000037
    3            -0.000003   0.999207   0.999650  -0.000204   0.000037

                      6          7          8          9         10

                  2.000000   2.000000   2.000000   2.000000   2.000000

    1             2.000004   1.999891   0.643114   0.267465   1.206061
    2            -0.000002   0.000055   0.678443   0.866268   0.396969
    3            -0.000002   0.000055   0.678443   0.866268   0.396969

                     11         12         13         14         15

                  2.000000   2.000000   2.000000   2.000000   2.000000

    1             0.558867   0.891659   1.144355   0.056885   0.267562
    2             0.720567   0.554171   0.427822   0.971557   0.866219
    3             0.720567   0.554171   0.427822   0.971557   0.866219

                     16

                  2.000000

    1             0.128113
    2             0.935944
    3             0.935944

               ----- POPULATIONS IN EACH AO -----
                             MULLIKEN      LOWDIN
              1  S  1  S      2.00023     1.99589
              2  S  1  S      2.01015     1.96976
              3  S  1  S      0.98997     0.61148
              4  S  1  S      0.83671     0.54257
              5  S  1  X      1.99630     1.95356
              6  S  1  Y      1.99619     1.95587
              7  S  1  Z      1.99694     1.96009
              8  S  1  X      0.66227     0.60580
              9  S  1  Y      0.68720     0.65335
             10  S  1  Z      0.80563     0.76921
             11  S  1  X      0.19704     0.30593
             12  S  1  Y      0.44839     0.49602
             13  S  1  Z      0.25815     0.41111
             14  S  1 XX      0.05302     0.26017
             15  S  1 YY      0.05950     0.24474
             16  S  1 ZZ      0.05689     0.25824
             17  S  1 XY      0.09946     0.06687
             18  S  1 XZ      0.01258     0.12550
             19  S  1 YZ      0.00000     0.01206
             20  O  2  S      1.99802     1.98091
             21  O  2  S      0.84241     0.65959
             22  O  2  S      1.09037     0.58289
             23  O  2  X      0.97117     0.93439
             24  O  2  Y      0.83756     0.80493
             25  O  2  Z      0.95808     0.92518
             26  O  2  X      0.55899     0.62384
             27  O  2  Y      0.55714     0.59695
             28  O  2  Z      0.58697     0.65743
             29  O  2 XX      0.00294     0.20574
             30  O  2 YY      0.00272     0.20894
             31  O  2 ZZ      0.00262     0.20511
             32  O  2 XY      0.00565     0.00348
             33  O  2 XZ      0.00205     0.00896
             34  O  2 YZ      0.00000     0.00256
             35  O  3  S      1.99802     1.98091
             36  O  3  S      0.84241     0.65959
             37  O  3  S      1.09037     0.58289
             38  O  3  X      0.97117     0.93439
             39  O  3  Y      0.83756     0.80493
             40  O  3  Z      0.95808     0.92518
             41  O  3  X      0.55899     0.62384
             42  O  3  Y      0.55714     0.59695
             43  O  3  Z      0.58697     0.65743
             44  O  3 XX      0.00294     0.20574
             45  O  3 YY      0.00272     0.20894
             46  O  3 ZZ      0.00262     0.20511
             47  O  3 XY      0.00565     0.00348
             48  O  3 XZ      0.00205     0.00896
             49  O  3 YZ      0.00000     0.00256

          ----- MULLIKEN ATOMIC OVERLAP POPULATIONS -----
          (OFF-DIAGONAL ELEMENTS NEED TO BE MULTIPLIED BY 2)

             1           2           3

    1   14.5606169
    2    0.3029924   8.1855286
    3    0.3029924  -0.0718219   8.1855286

          TOTAL MULLIKEN AND LOWDIN ATOMIC POPULATIONS
       ATOM         MULL.POP.    CHARGE          LOW.POP.     CHARGE
    1 S            15.166602    0.833398        15.198209    0.801791
    2 O             8.416699   -0.416699         8.400895   -0.400895
    3 O             8.416699   -0.416699         8.400895   -0.400895

          MULLIKEN SPHERICAL HARMONIC POPULATIONS
       ATOM           S       P       D      F      G      H      I    TOTAL
    1 S             5.84    9.05    0.28   0.00   0.00   0.00   0.00   15.17
    2 O             3.93    4.47    0.02   0.00   0.00   0.00   0.00    8.42
    3 O             3.93    4.47    0.02   0.00   0.00   0.00   0.00    8.42

          -------------------------------
          BOND ORDER AND VALENCE ANALYSIS     BOND ORDER THRESHOLD=0.050
          -------------------------------

                   BOND                       BOND                       BOND
  ATOM PAIR DIST  ORDER      ATOM PAIR DIST  ORDER      ATOM PAIR DIST  ORDER
    1   2  1.600  1.695        1   3  1.600  1.695        2   3  2.451  0.375

                       TOTAL       BONDED        FREE
      ATOM            VALENCE     VALENCE     VALENCE
    1 S                 3.389       3.389       0.000
    2 O                 2.069       2.069       0.000
    3 O                 2.069       2.069       0.000

          ---------------------
          ELECTROSTATIC MOMENTS
          ---------------------

 POINT   1           X           Y           Z (BOHR)    CHARGE
                 0.000000    0.000000    0.000000        0.00 (A.U.)
         DX          DY          DZ         /D/  (DEBYE)
     0.000000    0.000000   -2.881467    2.881467
 ...... END OF PROPERTY EVALUATION ......
 STEP CPU TIME =     0.01 TOTAL CPU TIME =        4.1 (    0.1 MIN)
 TOTAL WALL CLOCK TIME=        4.1 SECONDS, CPU UTILIZATION IS 100.00%
               580000  WORDS OF DYNAMIC MEMORY USED
 EXECUTION OF GAMESS TERMINATED NORMALLY Thu Feb 26 00:17:53 2015
 DDI: 263624 bytes (0.3 MB / 0 MWords) used by master data server.

 ----------------------------------------
 CPU timing information for all processes
 ========================================
 0: 4.64 + 0.24 = 4.89
 ----------------------------------------
 ddikick.x: exited gracefully.
----- accounting info -----
Files used on the master node dftfe.crc.nd.edu were:
-rw-r--r-- 1 pmehta1 campus   37475 Feb 26 00:17 /tmp/gamess.dat
-rw-r--r-- 1 pmehta1 campus     142 Feb 26 00:17 /tmp/gamess.F05
-rw-r--r-- 1 pmehta1 campus 2160288 Feb 26 00:17 /tmp/gamess.F08
-rw-r--r-- 1 pmehta1 campus 1220440 Feb 26 00:17 /tmp/gamess.F10
Thu Feb 26 00:17:56 EST 2015
0.237u 0.182s 0:07.52 5.4%	0+0k 0+104io 0pf+0w
